|===============================================================================
|
|  DFTB+ development version (commit: fab0add1, base: 21.2)
|
|  Copyright (C) 2006 - 2022  DFTB+ developers group
|
|===============================================================================
|
|  When publishing results obtained with DFTB+, please cite the following
|  reference:
|
|  * DFTB+, a software package for efficient approximate density functional
|    theory based atomistic simulations, J. Chem. Phys. 152, 124101 (2020).
|    [doi: 10.1063/1.5143190]
|
|  You should also cite additional publications crediting the parametrization
|  data you use. Please consult the documentation of the SK-files for the
|  references.
|
|===============================================================================

Reading input file 'dftb_in.hsd'
Parser version: 11

--------------------------------------------------------------------------------
Reading SK-files:
/home/jjakowsk/Development/DFTB/SlaKo/3ob-3-1/C-C.skf
/home/jjakowsk/Development/DFTB/SlaKo/3ob-3-1/C-O.skf
/home/jjakowsk/Development/DFTB/SlaKo/3ob-3-1/O-O.skf
Done.


Processed input in HSD format written to 'dftb_pin.hsd'

Starting initialization...
--------------------------------------------------------------------------------
OpenMP threads:              64
Chosen random seed:          450002543
Mode:                        Static calculation
Self consistent charges:     Yes
SCC-tolerance:                 0.100000E-09
Max. scc iterations:                   1000
Shell resolved Hubbard:      No
Spin polarisation:           No
Nr. of up electrons:             8.000000
Nr. of down electrons:           8.000000
Periodic boundaries:         No
Electronic solver:           Relatively robust
Mixer:                       Broyden mixer
Mixing parameter:                  0.200000
Maximal SCC-cycles:                    1000
Nr. of chrg. vec. in memory:           1000
Electronic temperature:              0.100000E-07 H      0.272114E-06 eV
Initial charges:             Set automatically (system chrg:   0.000E+00)
Included shells:             C:  s, p
                             O:  s, p
s-dftd3 library version:     0.6.0
-> damping function:         rational damping
Full 3rd order correction    Yes
Extra options:
                             Mulliken analysis
                             Force calculation
Force type                   original

--------------------------------------------------------------------------------

***  Geometry step: 0

 iSCC Total electronic   Diff electronic      SCC error    
    1    0.00000000E+00    0.00000000E+00    0.10205720E+01
    2   -0.87894216E+01   -0.87894216E+01    0.75162742E+00
    3   -0.87932536E+01   -0.38320004E-02    0.31177483E-01
    4   -0.87983724E+01   -0.51187751E-02    0.15640632E-02
    5   -0.87983825E+01   -0.10105213E-04    0.35691106E-05
    6   -0.87983825E+01   -0.25361397E-07    0.20534996E-09
    7   -0.87983825E+01   -0.13322676E-12    0.35527137E-14

Total Energy:                       -8.3546066448 H         -227.3404 eV
Extrapolated to 0K:                 -8.3546066448 H         -227.3404 eV
Total Mermin free energy:           -8.3546066448 H         -227.3404 eV
Force related energy:               -8.3546066448 H         -227.3404 eV

>> Charges saved for restart in charges.bin

total energy  -8.3546066E+00 H       energy change -8.3546066E+00 H
gradient norm  2.6830991E-01 H/a0    max. gradient  1.8972376E-01 H/a0
step length    0.0000000E+00 a0      max. step      0.0000000E+00 a0

--------------------------------------------------------------------------------

***  Geometry step: 1

 iSCC Total electronic   Diff electronic      SCC error    
    1   -0.87983825E+01    0.00000000E+00    0.40873050E-01
    2   -0.86194278E+01    0.17895474E+00    0.27508519E-01
    3   -0.86194438E+01   -0.16032623E-04    0.59962837E-04
    4   -0.86194571E+01   -0.13231799E-04    0.85609483E-07
    5   -0.86194571E+01   -0.62636119E-10    0.26822988E-12

Total Energy:                       -8.3754104635 H         -227.9065 eV
Extrapolated to 0K:                 -8.3754104635 H         -227.9065 eV
Total Mermin free energy:           -8.3754104635 H         -227.9065 eV
Force related energy:               -8.3754104635 H         -227.9065 eV

>> Charges saved for restart in charges.bin

total energy  -8.3754105E+00 H       energy change -2.0803819E-02 H
gradient norm  6.7364041E-02 H/a0    max. gradient  4.7633570E-02 H/a0
step length    2.5135788E-01 a0      max. step      1.7773686E-01 a0

--------------------------------------------------------------------------------

***  Geometry step: 2

 iSCC Total electronic   Diff electronic      SCC error    
    1   -0.86194571E+01    0.00000000E+00    0.93346690E-02
    2   -0.86532978E+01   -0.33840766E-01    0.63870332E-02
    3   -0.86532986E+01   -0.73429517E-06    0.26661799E-05
    4   -0.86532992E+01   -0.64690342E-06    0.83724849E-09
    5   -0.86532992E+01   -0.11191048E-12    0.53290705E-14

Total Energy:                       -8.3775537502 H         -227.9648 eV
Extrapolated to 0K:                 -8.3775537502 H         -227.9648 eV
Total Mermin free energy:           -8.3775537502 H         -227.9648 eV
Force related energy:               -8.3775537502 H         -227.9648 eV

>> Charges saved for restart in charges.bin

total energy  -8.3775538E+00 H       energy change -2.1432867E-03 H
gradient norm  1.6706959E-02 H/a0    max. gradient  1.1813604E-02 H/a0
step length    5.0315538E-02 a0      max. step      3.5578458E-02 a0

--------------------------------------------------------------------------------

***  Geometry step: 3

 iSCC Total electronic   Diff electronic      SCC error    
    1   -0.86532992E+01    0.00000000E+00    0.28923919E-02
    2   -0.86646775E+01   -0.11378318E-01    0.19875601E-02
    3   -0.86646776E+01   -0.67855428E-07    0.26892079E-06
    4   -0.86646776E+01   -0.60722471E-07    0.25752733E-10

Total Energy:                       -8.3776802084 H         -227.9683 eV
Extrapolated to 0K:                 -8.3776802084 H         -227.9683 eV
Total Mermin free energy:           -8.3776802084 H         -227.9683 eV
Force related energy:               -8.3776802084 H         -227.9683 eV

>> Charges saved for restart in charges.bin

total energy  -8.3776802E+00 H       energy change -1.2645824E-04 H
gradient norm  1.6039565E-03 H/a0    max. gradient  1.1341685E-03 H/a0
step length    1.6589748E-02 a0      max. step      1.1730724E-02 a0

--------------------------------------------------------------------------------

***  Geometry step: 4

 iSCC Total electronic   Diff electronic      SCC error    
    1   -0.86646776E+01    0.00000000E+00    0.25051205E-03
    2   -0.86636766E+01    0.10010489E-02    0.17205622E-03
    3   -0.86636766E+01   -0.51120352E-09    0.20849069E-08
    4   -0.86636766E+01   -0.45646154E-09    0.15543122E-12

Total Energy:                       -8.3776813482 H         -227.9683 eV
Extrapolated to 0K:                 -8.3776813482 H         -227.9683 eV
Total Mermin free energy:           -8.3776813482 H         -227.9683 eV
Force related energy:               -8.3776813482 H         -227.9683 eV

>> Charges saved for restart in charges.bin

total energy  -8.3776813E+00 H       energy change -1.1398209E-06 H
gradient norm  3.4145696E-05 H/a0    max. gradient  2.4144653E-05 H/a0
step length    1.4531867E-03 a0      max. step      1.0275582E-03 a0

Geometry converged

--------------------------------------------------------------------------------
DFTB+ running times                          cpu [s]             wall clock [s]
--------------------------------------------------------------------------------
Pre-SCC initialisation                 +      36.38 ( 40.6%)       0.59 ( 38.8%)
SCC                                    +      36.52 ( 40.8%)       0.66 ( 43.1%)
Post-SCC processing                    +      16.60 ( 18.5%)       0.27 ( 18.0%)
--------------------------------------------------------------------------------
Missing                                +       0.04 (  0.0%)       0.00 (  0.1%)
Total                                  =      89.54 (100.0%)       1.53 (100.0%)
--------------------------------------------------------------------------------
