    3
Geometry Step: 4
    C      0.00000000     -0.00000000      0.00000000      3.26499999
    O     -0.00000000      0.00000000      1.16956312      6.36750000
    O     -0.00000000     -0.00000000     -1.16956312      6.36750000
