 Fermi distribution function

Difference derivative step: 17


********************************************************************************
 iSCC Total electronic   Diff electronic      SCC error    
    5   -0.86637253E+01   -0.52935434E-12    0.84376950E-14
********************************************************************************

 Total charge:    -0.00000000

 Atomic gross charges (e)
 Atom           Charge
    1       0.73500780
    2      -0.36754000
    3      -0.36746780

Nr. of electrons (up):     16.00000000
Atom populations (up)
 Atom       Population
    1       3.26499220
    2       6.36754000
    3       6.36746780

l-shell populations (up)
 Atom Sh.   l       Population
    1   1   0       0.97633180
    1   2   1       2.28866040
    2   1   0       1.73488762
    2   2   1       4.63265238
    3   1   0       1.73486651
    3   2   1       4.63260129

Orbital populations (up)
 Atom Sh.   l   m       Population  Label
    1   1   0   0       0.97633180  s
    1   2   1  -1       0.78894453  p_y
    1   2   1   0       0.71077134  p_z
    1   2   1   1       0.78894453  p_x
    2   1   0   0       1.73488762  s
    2   2   1  -1       1.60555286  p_y
    2   2   1   0       1.42154667  p_z
    2   2   1   1       1.60555286  p_x
    3   1   0   0       1.73486651  s
    3   2   1  -1       1.60550262  p_y
    3   2   1   0       1.42159606  p_z
    3   2   1   1       1.60550262  p_x

Fermi level:                        -0.1579396851 H           -4.2978 eV
Band energy:                        -8.7834883244 H         -239.0109 eV
TS:                                  0.0000000000 H            0.0000 eV
Band free energy (E-TS):            -8.7834883244 H         -239.0109 eV
Extrapolated E(0K):                 -8.7834883244 H         -239.0109 eV
Input / Output electrons (q):     16.0000000000     16.0000000000

Energy H0:                          -8.6830299099 H         -236.2773 eV
Energy SCC:                          0.0174326220 H            0.4744 eV
Energy 3rd:                          0.0018719950 H            0.0509 eV
Total Electronic energy:            -8.6637252929 H         -235.7520 eV
Repulsive energy:                    0.2865515701 H            7.7975 eV
Dispersion energy:                  -0.0005076227 H           -0.0138 eV
Total energy:                       -8.3776813455 H         -227.9683 eV
Extrapolated to 0:                  -8.3776813455 H         -227.9683 eV
Total Mermin free energy:           -8.3776813455 H         -227.9683 eV
Force related energy:               -8.3776813455 H         -227.9683 eV

SCC converged

Total Forces
    1      0.000000000000     -0.000000000000      0.000094906393
    2      0.000000000000      0.000000000000     -0.000015339400
    3     -0.000000000000      0.000000000000     -0.000079566992

Maximal derivative component:        0.949064E-04 au
Max force for moved atoms::          0.949064E-04 au

Dipole moment:    0.00000000   -0.00000000   -0.00019630 au
Dipole moment:    0.00000000   -0.00000000   -0.00049894 Debye

Second derivatives completed

