
Running Job 1 of 1 water-freqs-v2.inp
qchem water-freqs-v2.inp_7931.0 ./qchem7931/ 1
/opt/qchem/bin/mpi/mpirun_qchem -machinefile /opt/qchem/bin/mpi/machines -np 1 /opt/qchem/exe/qcprog.exe water-freqs-v2.inp_7931.0 ./qchem7931/

Process 0 of 1 is on comet-ln2.sdsc.edu - thread support 0
initial socket setup ...start
initial socket setup ...done 
now start server 0 ... 
Check license passed

                  Welcome to Q-Chem
     A Quantum Leap Into The Future Of Chemistry


 Q-Chem 5.1, Q-Chem, Inc., Pleasanton, CA (2018)

 Yihan Shao,  Zhengting Gan,  E. Epifanovsky,  A. T. B. Gilbert,  M. Wormit,  
 J. Kussmann,  A. W. Lange,  A. Behn,  Jia Deng,  Xintian Feng,  D. Ghosh,  
 M. Goldey,  P. R. Horn,  L. D. Jacobson,  I. Kaliman,  T. Kus,  A. Landau,  
 Jie Liu,  E. I. Proynov,  R. M. Richard,  R. P. Steele,  E. J. Sundstrom,  
 H. L. Woodcock III,  P. M. Zimmerman,  D. Zuev,  B. Albrecht,  E. Alguire,  
 S. A. Baeppler,  D. Barton,  Z. Benda,  Y. A. Bernard,  E. J. Berquist,  
 K. B. Bravaya,  H. Burton,  D. Casanova,  Chun-Min Chang,  Yunqing Chen,  
 A. Chien,  K. D. Closser,  M. P. Coons,  S. Coriani,  S. Dasgupta,  
 A. L. Dempwolff,  M. Diedenhofen,  Hainam Do,  R. G. Edgar,  Po-Tung Fang,  
 S. Faraji,  S. Fatehi,  Qingguo Feng,  K. D. Fenk,  J. Fosso-Tande,  
 Qinghui Ge,  A. Ghysels,  G. Gidofalvi,  J. Gomes,  J. Gonthier,  A. Gunina,  
 D. Hait,  M. W. D. Hanson-Heine,  P. H. P. Harbach,  A. W. Hauser,  
 J. E. Herr,  E. G. Hohenstein,  Z. C. Holden,  Kerwin Hui,  B. C. Huynh,  
 T.-C. Jagau,  Hyunjun Ji,  B. Kaduk,  K. Khistyaev,  Jaehoon Kim,  
 P. Klunzinger,  K. Koh,  D. Kosenkov,  L. Koulias,  T. Kowalczyk,  
 C. M. Krauter,  A. Kunitsa,  Ka Un Lao,  A. Laurent,  K. V. Lawler,  
 Joonho Lee,  D. Lefrancois,  S. Lehtola,  D. S. Levine,  Yi-Pei Li,  
 You-Sheng Lin,  Fenglai Liu,  E. Livshits,  A. Luenser,  P. Manohar,  
 E. Mansoor,  S. F. Manzer,  Shan-Ping Mao,  Yuezhi Mao,  N. Mardirossian,  
 A. V. Marenich,  T. Markovich,  L. A. Martinez-Martinez,  S. A. Maurer,  
 N. J. Mayhall,  S. C. McKenzie,  J.-M. Mewes,  A. F. Morrison,  
 J. W. Mullinax,  K. Nanda,  T. S. Nguyen-Beck,  R. Olivares-Amaya,  
 J. A. Parkhill,  T. M. Perrine,  F. Plasser,  P. Pokhilko,  S. Prager,  
 A. Prociuk,  E. Ramos,  D. R. Rehn,  F. Rob,  M. Schneider,  N. Sergueev,  
 S. M. Sharada,  S. Sharma,  D. W. Small,  T. Stauch,  T. Stein,  
 Yu-Chuan Su,  A. J. W. Thom,  A. Tkatchenko,  T. Tsuchimochi,  N. M. Tubman,  
 L. Vogt,  M. L. Vidal,  O. Vydrov,  M. A. Watson,  J. Wenzel,  
 M. de Wergifosse,  T. A. Wesolowski,  A. White,  J. Witte,  A. Yamada,  
 Jun Yang,  K. Yao,  S. Yeganeh,  S. R. Yost,  Zhi-Qiang You,  A. Zech,  
 Igor Ying Zhang,  Xing Zhang,  Yan Zhao,  Ying Zhu,  B. R. Brooks,  
 G. K. L. Chan,  C. J. Cramer,  M. S. Gordon,  W. J. Hehre,  A. Klamt,  
 M. W. Schmidt,  C. D. Sherrill,  D. G. Truhlar,  A. Aspuru-Guzik,  R. Baer,  
 A. T. Bell,  N. A. Besley,  Jeng-Da Chai,  A. E. DePrince, III,  
 R. A. DiStasio Jr.,  A. Dreuw,  B. D. Dunietz,  T. R. Furlani,  
 Chao-Ping Hsu,  Yousung Jung,  Jing Kong,  D. S. Lambrecht,  WanZhen Liang,  
 C. Ochsenfeld,  V. A. Rassolov,  L. V. Slipchenko,  J. E. Subotnik,  
 T. Van Voorhis,  J. M. Herbert,  A. I. Krylov,  P. M. W. Gill,  M. Head-Gordon

 Contributors to earlier versions of Q-Chem not listed above: 
 R. D. Adamson,  B. Austin,  J. Baker,  G. J. O. Beran,  K. Brandhorst,  
 S. T. Brown,  E. F. C. Byrd,  A. K. Chakraborty,  C.-L. Cheng,  
 Siu Hung Chien,  D. M. Chipman,  D. L. Crittenden,  H. Dachsel,  
 R. J. Doerksen,  A. D. Dutoi,  L. Fusti-Molnar,  W. A. Goddard III,  
 A. Golubeva-Zadorozhnaya,  S. R. Gwaltney,  G. Hawkins,  A. Heyden,  
 S. Hirata,  G. Kedziora,  F. J. Keil,  C. Kelley,  Jihan Kim,  R. A. King,  
 R. Z. Khaliullin,  P. P. Korambath,  W. Kurlancheek,  A. M. Lee,  M. S. Lee,  
 S. V. Levchenko,  Ching Yeh Lin,  D. Liotard,  R. C. Lochan,  I. Lotan,  
 P. E. Maslen,  N. Nair,  D. P. O'Neill,  D. Neuhauser,  E. Neuscamman,  
 C. M. Oana,  R. Olson,  B. Peters,  R. Peverati,  P. A. Pieniazek,  
 Y. M. Rhee,  J. Ritchie,  M. A. Rohrdanz,  E. Rosta,  N. J. Russ,  
 H. F. Schaefer III,  N. E. Schultz,  N. Shenvi,  A. C. Simmonett,  A. Sodt,  
 D. Stuck,  K. S. Thanthiriwatte,  V. Vanovschi,  Tao Wang,  A. Warshel,  
 C. F. Williams,  Q. Wu,  X. Xu,  W. Zhang

 Please cite Q-Chem as follows:
 Y. Shao et al., Mol. Phys. 113, 184-215 (2015)
 DOI: 10.1080/00268976.2014.952696

 Q-Chem 5.1.1 for Intel X86 EM64T Linux

 Parts of Q-Chem use Armadillo 8.300.2 (Tropical Shenanigans).
 http://arma.sourceforge.net/

 Q-Chem begins on Thu Sep 20 07:01:02 2018  

Host: 
0

     Scratch files written to ./qchem7931//
 Aug318 |scratch|qcdevops|jenkins|workspace|build_RNUM    
 Parallel job on  1  processors
Processing $rem in /opt/qchem/config/preferences.
 MEM_TOTAL  4000 
Input Ideriv = 1
Curr. Ideriv = -1
Max.  Ideriv = 1


!!********************************************.
!!******************Warning*******************.
!!Desired Analytical derivatives not available.
!!Finite difference job might take a long time.
!!********************************************.
!!********************************************.


 2-order derivative to be evaluated numerically with 1-order analytical derivatives

Checking the input file for inconsistencies... 	...done.

--------------------------------------------------------------
User input:
--------------------------------------------------------------

$molecule
0  3
O       0.0000000000    -0.0002298572     0.0000000000
H      -0.0000000000     0.0009194289    -1.2568516685
H       0.0000000000     0.0009194289     1.2568516685
$end


$rem
BASIS       3-21G
JOBTYPE     freq
METHOD      hf
!SCF_GUESS   read
UNRESTRICTED  false
MAX_SCF_CYCLES   2000
vibman_print 6
! SCF_ALGORITHM  DIIS_GDM
!
$end

--------------------------------------------------------------
 ----------------------------------------------------------------
             Standard Nuclear Orientation (Angstroms)
    I     Atom           X                Y                Z
 ----------------------------------------------------------------
    1      O       0.0000000000    -0.0002298572    -0.0000000000
    2      H      -0.0000000000     0.0009194289    -1.2568516685
    3      H      -0.0000000000     0.0009194289     1.2568516685
 ----------------------------------------------------------------
 Molecular Point Group                 C*v   NOp =***
 Largest Abelian Subgroup              C2v   NOp =  1
 Nuclear Repulsion Energy =     6.9470572043 hartrees
 There are        6 alpha and        4 beta electrons
 Requested basis set is 3-21G
 There are 7 shells and 13 basis functions

 Total QAlloc Memory Limit   4000 MB
 Mega-Array Size       188 MB
 MEM_STATIC part       192 MB

                       Distance Matrix (Angstroms)
             O (  1)   H (  2)
   H (  2)  1.256852
   H (  3)  1.256852  2.513703
 
 A cutoff of  1.0D-12 yielded     28 shell pairs
 There are       103 function pairs
 
 -------------------------------------------------------
 OpenMP Integral Computing Module                       
 Release: version 1.0, May 2013, Q-Chem Inc. Pittsburgh 
 -------------------------------------------------------
 Integral Job Info:
 Integral job number is                      11
 Integral operator is                         1
 short-range coefficients                     0
 long-range coefficients              100000000
 Omega coefficients                           0
 if combine SR and LR in K                    0
 Integral screening is                        0
 Integral computing path is                   2
 max size of driver memory is            800000
 size of driver memory is                 45569
 size of scratch memory is               800000
 max col of scratch BK array                289
 max len of scratch array in speh3           22
 max len of scratch index in speh4            8
 max int batch size is                      520
 min int batch size is                       52
 fixed nKL is                               143
 max L of basis functions is                  1
 order of int derivative is                   0
 number of shells is                          7
 number of basis is                          13
 number of cartesian basis is                13
 number of contracted shell pairs            28
 number of primitive shell pairs             81
 maxK2 (contraction) of shell pair            9
 max number of K2 of shell pair               1
 max number of CS2 of shell pair              4
 max number of PS2 of shell pair             10
 mem total for path MDJ                  504126
 -------------------------------------------------------
 Smallest overlap matrix eigenvalue = 1.61E-01
 Constructing guess Fock matrix from core Hamiltonian
 Applying Wolfsberg-Helmholtz approximation
 A restricted Hartree-Fock SCF calculation will be
 performed using Geometric Direct Minimization
 SCF converges when RMS gradient is below 1.0E-08
 using 4 threads for integral computing
 -------------------------------------------------------
 OpenMP Integral computing Module                
 Release: version 1.0, May 2013, Q-Chem Inc. Pittsburgh 
 -------------------------------------------------------
TIMEINFO->: J/JK contribution 0.13 sec.
 ---------------------------------------
  Cycle       Energy        RMS Gradient
 ---------------------------------------
    1     -72.2452423032      1.65E+00 Descent step
TIMEINFO->: J/JK contribution 0.07 sec.
    2     -73.3169148842      1.75E+00 Descent step
TIMEINFO->: J/JK contribution 0.06 sec.
    3     -74.1581644926      8.66E-01 Descent step
TIMEINFO->: J/JK contribution 0.06 sec.
    4     -74.6733269616      6.40E-01 Descent step
TIMEINFO->: J/JK contribution 0.06 sec.
    5     -74.9939762696      4.15E-01 Descent step
TIMEINFO->: J/JK contribution 0.06 sec.
    6     -75.1556959438      1.87E-01 Normal BFGS step
TIMEINFO->: J/JK contribution 0.06 sec.
    7     -75.2003337824      4.01E-02 Normal BFGS step
TIMEINFO->: J/JK contribution 0.06 sec.
    8     -75.2025573691      1.65E-02 Normal BFGS step
TIMEINFO->: J/JK contribution 0.06 sec.
    9     -75.2029997966      2.33E-03 Normal BFGS step
TIMEINFO->: J/JK contribution 0.06 sec.
   10     -75.2030083262      3.38E-04 Normal BFGS step
TIMEINFO->: J/JK contribution 0.06 sec.
   11     -75.2030086040      6.46E-05 Normal BFGS step
TIMEINFO->: J/JK contribution 0.06 sec.
   12     -75.2030086128      1.06E-05 Normal BFGS step
TIMEINFO->: J/JK contribution 0.06 sec.
   13     -75.2030086131      2.20E-06 Normal BFGS step
TIMEINFO->: J/JK contribution 0.06 sec.
   14     -75.2030086131      1.21E-06 Normal BFGS step
TIMEINFO->: J/JK contribution 0.06 sec.
   15     -75.2030086131      3.32E-07 Normal BFGS step
TIMEINFO->: J/JK contribution 0.06 sec.
   16     -75.2030086131      7.10E-08 Normal BFGS step
TIMEINFO->: J/JK contribution 0.06 sec.
   17     -75.2030086131      1.70E-07 Normal BFGS step
TIMEINFO->: J/JK contribution 0.06 sec.
   18     -75.2030086131      1.32E-06 Line search: understep
TIMEINFO->: J/JK contribution 0.06 sec.
   19     -75.2030086131      1.45E-05 Line search: understep
TIMEINFO->: J/JK contribution 0.06 sec.
   20     -75.2030086142      1.33E-04 Line search: understep
TIMEINFO->: J/JK contribution 0.07 sec.
   21     -75.2030087051      1.20E-03 Line search: understep
TIMEINFO->: J/JK contribution 0.06 sec.
   22     -75.2030160306      1.07E-02 Line search: understep
TIMEINFO->: J/JK contribution 0.06 sec.
   23     -75.2035837973      9.09E-02 Line search: understep
TIMEINFO->: J/JK contribution 0.06 sec.
   GDM::BFGS:   rebuilding Hinv to be positive definite
   24     -75.2231839020      3.81E-01 Descent step
TIMEINFO->: J/JK contribution 0.06 sec.
   25     -75.3701883898      1.00E-01 Dog-leg BFGS step
TIMEINFO->: J/JK contribution 0.06 sec.
   26     -75.3678640113      2.59E-01 Line search: overstep
TIMEINFO->: J/JK contribution 0.07 sec.
   27     -75.3823841376      8.60E-02 Dog-leg BFGS step
TIMEINFO->: J/JK contribution 0.07 sec.
   28     -75.3882012371      3.54E-02 Dog-leg BFGS step
TIMEINFO->: J/JK contribution 0.06 sec.
   29     -75.3873587193      6.76E-01 Line search: overstep
TIMEINFO->: J/JK contribution 0.06 sec.
   30     -75.3887742166      2.96E-02 Descent step
TIMEINFO->: J/JK contribution 0.06 sec.
   31     -75.3896992774      1.43E-02 Normal BFGS step
TIMEINFO->: J/JK contribution 0.06 sec.
   32     -75.3901967336      1.72E-02 Normal BFGS step
TIMEINFO->: J/JK contribution 0.07 sec.
   33     -75.3900298462      1.53E-01 Line search: overstep
TIMEINFO->: J/JK contribution 0.06 sec.
   34     -75.3906622912      4.42E-03 Normal BFGS step
TIMEINFO->: J/JK contribution 0.06 sec.
   35     -75.3907191650      2.20E-03 Normal BFGS step
TIMEINFO->: J/JK contribution 0.06 sec.
   36     -75.3907262294      2.97E-04 Normal BFGS step
TIMEINFO->: J/JK contribution 0.06 sec.
   37     -75.3907264818      9.03E-05 Normal BFGS step
TIMEINFO->: J/JK contribution 0.06 sec.
   38     -75.3907264995      2.18E-05 Normal BFGS step
TIMEINFO->: J/JK contribution 0.06 sec.
   39     -75.3907265001      2.96E-06 Normal BFGS step
TIMEINFO->: J/JK contribution 0.06 sec.
   40     -75.3907265001      5.91E-07 Normal BFGS step
TIMEINFO->: J/JK contribution 0.06 sec.
   41     -75.3907265001      1.18E-07 Normal BFGS step
TIMEINFO->: J/JK contribution 0.07 sec.
   42     -75.3907265001      1.81E-08 Normal BFGS step
TIMEINFO->: J/JK contribution 0.06 sec.
   43     -75.3907265002      5.14E-09 Convergence criterion met
 ---------------------------------------
 SCF time:  CPU 4.37 s  wall 1.16 s
 SCF   energy in the final basis set = -75.39072650
 Total energy in the final basis set = -75.39072650
 
 --------------------------------------------------------------
 
                    Orbital Energies (a.u.)
 --------------------------------------------------------------
 
 Alpha MOs
 -- Occupied --
-20.577  -1.374  -0.715  -0.579  -0.669  -0.272
 -- Virtual --
  0.170   1.031   1.117   1.620   1.692   2.154   2.729
 
 Beta MOs
 -- Occupied --
-20.531  -1.181  -0.606  -0.522
 -- Virtual --
  0.174   0.144   0.309   1.107   1.206   1.808   1.724   2.197
  2.816
 --------------------------------------------------------------
 
          Ground-State Mulliken Net Atomic Charges

     Atom                 Charge (a.u.)
  ----------------------------------------
      1 O                    -0.234622
      2 H                     0.117311
      3 H                     0.117311
  ----------------------------------------
  Sum of atomic charges =    -0.000000

 -----------------------------------------------------------------
                    Cartesian Multipole Moments
 -----------------------------------------------------------------
    Charge (ESU x 10^10)
                -0.0000
    Dipole Moment (Debye)
         X      -0.0000      Y       0.0015      Z       0.0000
       Tot       0.0015
    Quadrupole Moments (Debye-Ang)
        XX      -6.6735     XY       0.0000     YY      -7.7003
        XZ      -0.0000     YZ       0.0000     ZZ      -6.0604
    Octopole Moments (Debye-Ang^2)
       XXX      -0.0000    XXY      -0.0009    XYY      -0.0000
       YYY      -0.0020    XXZ       0.0000    XYZ       0.0000
       YYZ       0.0000    XZZ       0.0000    YZZ       0.0004
       ZZZ       0.0000
    Hexadecapole Moments (Debye-Ang^3)
      XXXX      -4.5706   XXXY       0.0000   XXYY      -1.6767
      XYYY       0.0000   YYYY      -5.4895   XXXZ      -0.0000
      XXYZ      -0.0000   XYYZ      -0.0000   YYYZ      -0.0000
      XXZZ      -5.1453   XYZZ       0.0000   YYZZ      -5.2984
      XZZZ      -0.0000   YZZZ      -0.0000   ZZZZ     -24.1391
 -----------------------------------------------------------------
 Calculating analytic gradient of the SCF energy
 Gradient of SCF Energy
            1           2           3
    1  -0.0000000   0.0000000   0.0000000
    2  -0.0000505   0.0000252   0.0000252
    3  -0.0000000  -0.0109634   0.0109634
 Max gradient component =       1.096E-02
 RMS gradient           =       5.168E-03
 Gradient time:  CPU 0.39 s  wall 0.12 s
 ######################################################
 ######################################################
 # Starting finite difference calculation for IDERIV  #
 Finite diff step size:  1.88973e-03 a.u.
 ----------------------------------------------------------------
             Standard Nuclear Orientation (Angstroms)
    I     Atom           X                Y                Z
 ----------------------------------------------------------------
    1      O       0.0010000000    -0.0002298572    -0.0000000000
    2      H      -0.0000000000     0.0009194289    -1.2568516685
    3      H      -0.0000000000     0.0009194289     1.2568516685
 ----------------------------------------------------------------
 Nuclear Repulsion Energy =     6.9470550721 hartrees
 There are        6 alpha and        4 beta electrons

                       Distance Matrix (Angstroms)
             O (  1)   H (  2)
   H (  2)  1.256853
   H (  3)  1.256853  2.513703
 
 Requested basis set is 3-21G
 There are 7 shells and 13 basis functions
 A cutoff of  1.0D-12 yielded     28 shell pairs
 There are       103 function pairs
 Smallest overlap matrix eigenvalue = 1.61E-01
 Guess MOs from SCF MO coefficient file
 Reading MOs from coefficient file
 Reading MOs from coefficient file
 A restricted Hartree-Fock SCF calculation will be
 performed using Geometric Direct Minimization
 SCF converges when RMS gradient is below 1.0E-08
 using 4 threads for integral computing
 -------------------------------------------------------
 OpenMP Integral computing Module                
 Release: version 1.0, May 2013, Q-Chem Inc. Pittsburgh 
 -------------------------------------------------------
TIMEINFO->: J/JK contribution 0.08 sec.
 ---------------------------------------
  Cycle       Energy        RMS Gradient
 ---------------------------------------
    1     -75.3907262185      1.50E-04 Normal BFGS step
TIMEINFO->: J/JK contribution 0.06 sec.
    2     -75.3907263272      4.13E-05 Normal BFGS step
TIMEINFO->: J/JK contribution 0.06 sec.
    3     -75.3907263282      4.10E-06 Normal BFGS step
TIMEINFO->: J/JK contribution 0.06 sec.
    4     -75.3907263283      3.43E-07 Normal BFGS step
TIMEINFO->: J/JK contribution 0.06 sec.
    5     -75.3907263283      3.43E-07 Normal BFGS step
TIMEINFO->: J/JK contribution 0.06 sec.
    6     -75.3907263283      3.43E-07 Normal BFGS step
TIMEINFO->: J/JK contribution 0.06 sec.
    7     -75.3907263283      5.01E-07 Normal BFGS step
TIMEINFO->: J/JK contribution 0.06 sec.
    8     -75.3907263283      9.69E-07 Normal BFGS step
TIMEINFO->: J/JK contribution 0.06 sec.
    9     -75.3907263283      1.72E-06 Normal BFGS step
TIMEINFO->: J/JK contribution 0.06 sec.
   10     -75.3907263283      2.93E-06 Normal BFGS step
TIMEINFO->: J/JK contribution 0.06 sec.
   11     -75.3907263283      4.89E-06 Normal BFGS step
TIMEINFO->: J/JK contribution 0.06 sec.
   12     -75.3907263284      8.04E-06 Normal BFGS step
TIMEINFO->: J/JK contribution 0.06 sec.
   13     -75.3907263286      1.31E-05 Normal BFGS step
TIMEINFO->: J/JK contribution 0.06 sec.
   14     -75.3907263291      2.14E-05 Normal BFGS step
TIMEINFO->: J/JK contribution 0.06 sec.
   15     -75.3907263306      3.46E-05 Normal BFGS step
TIMEINFO->: J/JK contribution 0.06 sec.
   16     -75.3907263337      5.41E-05 Normal BFGS step
TIMEINFO->: J/JK contribution 0.06 sec.
   17     -75.3907263376      6.13E-05 Normal BFGS step
TIMEINFO->: J/JK contribution 0.06 sec.
   18     -75.3907263469      6.66E-05 Normal BFGS step
TIMEINFO->: J/JK contribution 0.06 sec.
   19     -75.3907263600      3.08E-05 Normal BFGS step
TIMEINFO->: J/JK contribution 0.06 sec.
   20     -75.3907263554      2.36E-04 Line search: overstep
TIMEINFO->: J/JK contribution 0.06 sec.
   21     -75.3907263625      3.73E-05 Normal BFGS step
TIMEINFO->: J/JK contribution 0.06 sec.
   22     -75.3907263660      5.92E-05 Normal BFGS step
TIMEINFO->: J/JK contribution 0.06 sec.
   23     -75.3907263726      7.03E-05 Normal BFGS step
TIMEINFO->: J/JK contribution 0.06 sec.
   24     -75.3907263782      3.38E-05 Normal BFGS step
TIMEINFO->: J/JK contribution 0.06 sec.
   25     -75.3907263763      1.95E-04 Line search: overstep
TIMEINFO->: J/JK contribution 0.06 sec.
   26     -75.3907263834      5.87E-05 Normal BFGS step
TIMEINFO->: J/JK contribution 0.06 sec.
   27     -75.3907263930      7.30E-05 Normal BFGS step
TIMEINFO->: J/JK contribution 0.07 sec.
   28     -75.3907263995      2.96E-05 Normal BFGS step
TIMEINFO->: J/JK contribution 0.06 sec.
   29     -75.3907264022      1.15E-04 Normal BFGS step
TIMEINFO->: J/JK contribution 0.06 sec.
   30     -75.3907264071      6.33E-06 Normal BFGS step
TIMEINFO->: J/JK contribution 0.06 sec.
   31     -75.3907264112      1.39E-05 Normal BFGS step
TIMEINFO->: J/JK contribution 0.06 sec.
   32     -75.3907262230      7.22E-04 Line search: overstep
TIMEINFO->: J/JK contribution 0.06 sec.
   33     -75.3907264133      2.89E-05 Normal BFGS step
TIMEINFO->: J/JK contribution 0.06 sec.
   34     -75.3907264124      1.68E-04 Line search: overstep
TIMEINFO->: J/JK contribution 0.06 sec.
   35     -75.3907264157      5.39E-05 Normal BFGS step
TIMEINFO->: J/JK contribution 0.06 sec.
   36     -75.3907264180      5.84E-05 Normal BFGS step
TIMEINFO->: J/JK contribution 0.06 sec.
   37     -75.3907264244      3.99E-05 Normal BFGS step
TIMEINFO->: J/JK contribution 0.06 sec.
   38     -75.3907264302      2.61E-05 Normal BFGS step
TIMEINFO->: J/JK contribution 0.06 sec.
   39     -75.3907264349      5.40E-05 Normal BFGS step
TIMEINFO->: J/JK contribution 0.06 sec.
   40     -75.3907264440      2.88E-05 Normal BFGS step
TIMEINFO->: J/JK contribution 0.06 sec.
   41     -75.3907261244      8.51E-04 Line search: overstep
TIMEINFO->: J/JK contribution 0.06 sec.
   42     -75.3907264453      2.92E-05 Normal BFGS step
TIMEINFO->: J/JK contribution 0.06 sec.
   43     -75.3907264473      3.88E-05 Normal BFGS step
TIMEINFO->: J/JK contribution 0.06 sec.
   44     -75.3907264489      1.73E-05 Normal BFGS step
TIMEINFO->: J/JK contribution 0.07 sec.
   45     -75.3907264501      2.61E-05 Normal BFGS step
TIMEINFO->: J/JK contribution 0.06 sec.
   46     -75.3907264524      2.96E-05 Normal BFGS step
TIMEINFO->: J/JK contribution 0.06 sec.
   47     -75.3907264543      9.38E-06 Normal BFGS step
TIMEINFO->: J/JK contribution 0.06 sec.
   48     -75.3907264529      8.79E-05 Line search: overstep
TIMEINFO->: J/JK contribution 0.06 sec.
   49     -75.3907264552      8.55E-06 Normal BFGS step
TIMEINFO->: J/JK contribution 0.06 sec.
   GDM::WARNING energy changes are now smaller than effective accuracy.
   GDM::        calculation will continue, but THRESH should be increased
   GDM::        or SCF_CONVERGENCE decreased.
   GDM::        effective_thresh =   9.271051842896227E-010
   50     -75.3907264548      5.11E-05 Normal BFGS step
TIMEINFO->: J/JK contribution 0.06 sec.
   51     -75.3907264561      9.36E-06 Normal BFGS step
TIMEINFO->: J/JK contribution 0.06 sec.
   52     -75.3907264565      8.04E-06 Normal BFGS step
TIMEINFO->: J/JK contribution 0.06 sec.
   GDM::WARNING energy changes are now smaller than effective accuracy.
   GDM::        calculation will continue, but THRESH should be increased
   GDM::        or SCF_CONVERGENCE decreased.
   GDM::        effective_thresh =   9.271051842896227E-010
   53     -75.3907264563      4.63E-05 Normal BFGS step
TIMEINFO->: J/JK contribution 0.06 sec.
   54     -75.3907264573      1.38E-06 Normal BFGS step
TIMEINFO->: J/JK contribution 0.06 sec.
   55     -75.3907264576      2.84E-06 Normal BFGS step
TIMEINFO->: J/JK contribution 0.07 sec.
   56     -75.3907264554      9.07E-05 Line search: overstep
TIMEINFO->: J/JK contribution 0.06 sec.
   57     -75.3907264579      7.17E-06 Normal BFGS step
TIMEINFO->: J/JK contribution 0.06 sec.
   58     -75.3907264579      2.28E-05 Normal BFGS step
TIMEINFO->: J/JK contribution 0.06 sec.
   59     -75.3907264582      6.75E-06 Normal BFGS step
TIMEINFO->: J/JK contribution 0.06 sec.
   60     -75.3907264583      3.79E-06 Normal BFGS step
TIMEINFO->: J/JK contribution 0.06 sec.
   61     -75.3907264585      8.27E-06 Normal BFGS step
TIMEINFO->: J/JK contribution 0.06 sec.
   62     -75.3907264586      2.55E-06 Normal BFGS step
TIMEINFO->: J/JK contribution 0.06 sec.
   63     -75.3907264586      3.02E-06 Normal BFGS step
TIMEINFO->: J/JK contribution 0.06 sec.
   64     -75.3907264587      3.75E-07 Normal BFGS step
TIMEINFO->: J/JK contribution 0.06 sec.
   65     -75.3907264587      3.19E-07 Normal BFGS step
TIMEINFO->: J/JK contribution 0.06 sec.
   66     -75.3907264587      2.59E-07 Normal BFGS step
TIMEINFO->: J/JK contribution 0.06 sec.
   67     -75.3907264587      1.78E-07 Normal BFGS step
TIMEINFO->: J/JK contribution 0.06 sec.
   68     -75.3907264587      1.56E-07 Normal BFGS step
TIMEINFO->: J/JK contribution 0.06 sec.
   69     -75.3907264587      5.23E-08 Normal BFGS step
TIMEINFO->: J/JK contribution 0.06 sec.
   70     -75.3907264587      5.50E-09 Convergence criterion met
 ---------------------------------------
 SCF time:  CPU 7.09 s  wall 1.85 s
 SCF   energy in the final basis set = -75.39072646
 Total energy in the final basis set = -75.39072646
 
 --------------------------------------------------------------
 
                    Orbital Energies (a.u.)
 --------------------------------------------------------------
 
 Alpha MOs
 -- Occupied --
-20.577  -1.374  -0.715  -0.579  -0.669  -0.272
 -- Virtual --
  0.170   1.031   1.117   1.620   1.692   2.154   2.729
 
 Beta MOs
 -- Occupied --
-20.531  -1.181  -0.606  -0.522
 -- Virtual --
  0.174   0.144   0.309   1.107   1.206   1.808   1.724   2.197
  2.816
 --------------------------------------------------------------
 
          Ground-State Mulliken Net Atomic Charges

     Atom                 Charge (a.u.)
  ----------------------------------------
      1 O                    -0.234622
      2 H                     0.117311
      3 H                     0.117311
  ----------------------------------------
  Sum of atomic charges =    -0.000000

 -----------------------------------------------------------------
                    Cartesian Multipole Moments
 -----------------------------------------------------------------
    Charge (ESU x 10^10)
                -0.0000
    Dipole Moment (Debye)
         X      -0.0013      Y       0.0015      Z       0.0000
       Tot       0.0020
    Quadrupole Moments (Debye-Ang)
        XX      -7.1159     XY       0.5085     YY      -7.2579
        XZ      -0.0000     YZ       0.0000     ZZ      -6.0604
    Octopole Moments (Debye-Ang^2)
       XXX      -0.0150    XXY       0.0002    XYY      -0.0054
       YYY      -0.0023    XXZ       0.0000    XYZ      -0.0000
       YYZ       0.0000    XZZ      -0.0052    YZZ       0.0004
       ZZZ       0.0000
    Hexadecapole Moments (Debye-Ang^3)
      XXXX      -4.9666   XXXY       0.2275   XXYY      -1.6767
      XYYY       0.2275   YYYY      -5.0936   XXXZ      -0.0000
      XXYZ       0.0000   XYYZ      -0.0000   YYYZ       0.0000
      XXZZ      -5.2113   XYZZ       0.0758   YYZZ      -5.2324
      XZZZ      -0.0000   YZZZ       0.0000   ZZZZ     -24.1391
 -----------------------------------------------------------------
 Calculating analytic gradient of the SCF energy
 Gradient of SCF Energy
            1           2           3
    1   0.0000439  -0.0000220  -0.0000220
    2  -0.0000505   0.0000252   0.0000252
    3  -0.0000000  -0.0109635   0.0109635
 Max gradient component =       1.096E-02
 RMS gradient           =       5.168E-03
 Gradient time:  CPU 0.22 s  wall 0.06 s
 ----------------------------------------------------------------
             Standard Nuclear Orientation (Angstroms)
    I     Atom           X                Y                Z
 ----------------------------------------------------------------
    1      O      -0.0010000000    -0.0002298572    -0.0000000000
    2      H      -0.0000000000     0.0009194289    -1.2568516685
    3      H      -0.0000000000     0.0009194289     1.2568516685
 ----------------------------------------------------------------
 Nuclear Repulsion Energy =     6.9470550721 hartrees
 There are        6 alpha and        4 beta electrons

                       Distance Matrix (Angstroms)
             O (  1)   H (  2)
   H (  2)  1.256853
   H (  3)  1.256853  2.513703
 
 Requested basis set is 3-21G
 There are 7 shells and 13 basis functions
 A cutoff of  1.0D-12 yielded     28 shell pairs
 There are       103 function pairs
 Smallest overlap matrix eigenvalue = 1.61E-01
 Guess MOs from SCF MO coefficient file
 Reading MOs from coefficient file
 Reading MOs from coefficient file
 A restricted Hartree-Fock SCF calculation will be
 performed using Geometric Direct Minimization
 SCF converges when RMS gradient is below 1.0E-08
 using 4 threads for integral computing
 -------------------------------------------------------
 OpenMP Integral computing Module                
 Release: version 1.0, May 2013, Q-Chem Inc. Pittsburgh 
 -------------------------------------------------------
TIMEINFO->: J/JK contribution 0.08 sec.
 ---------------------------------------
  Cycle       Energy        RMS Gradient
 ---------------------------------------
    1     -75.3907265324      3.53E-04 Normal BFGS step
TIMEINFO->: J/JK contribution 0.06 sec.
    2     -75.3907261375      1.61E-04 Normal BFGS step
TIMEINFO->: J/JK contribution 0.06 sec.
    3     -75.3907261602      2.68E-05 Normal BFGS step
TIMEINFO->: J/JK contribution 0.07 sec.
    4     -75.3907261617      8.97E-06 Normal BFGS step
TIMEINFO->: J/JK contribution 0.06 sec.
    5     -75.3907261618      1.36E-06 Normal BFGS step
TIMEINFO->: J/JK contribution 0.06 sec.
    6     -75.3907261618      3.38E-07 Normal BFGS step
TIMEINFO->: J/JK contribution 0.06 sec.
    7     -75.3907261618      9.49E-08 Normal BFGS step
TIMEINFO->: J/JK contribution 0.06 sec.
    8     -75.3907261618      9.49E-08 Normal BFGS step
TIMEINFO->: J/JK contribution 0.06 sec.
    9     -75.3907261618      9.49E-08 Normal BFGS step
TIMEINFO->: J/JK contribution 0.06 sec.
   10     -75.3907261618      2.25E-07 Normal BFGS step
TIMEINFO->: J/JK contribution 0.06 sec.
   11     -75.3907261618      4.62E-07 Normal BFGS step
TIMEINFO->: J/JK contribution 0.06 sec.
   12     -75.3907261618      8.48E-07 Normal BFGS step
TIMEINFO->: J/JK contribution 0.06 sec.
   13     -75.3907261618      1.47E-06 Normal BFGS step
TIMEINFO->: J/JK contribution 0.06 sec.
   14     -75.3907261618      2.48E-06 Normal BFGS step
TIMEINFO->: J/JK contribution 0.06 sec.
   15     -75.3907261618      4.12E-06 Normal BFGS step
TIMEINFO->: J/JK contribution 0.06 sec.
   16     -75.3907261618      6.78E-06 Normal BFGS step
TIMEINFO->: J/JK contribution 0.06 sec.
   17     -75.3907261619      1.12E-05 Normal BFGS step
TIMEINFO->: J/JK contribution 0.06 sec.
   18     -75.3907261621      1.87E-05 Normal BFGS step
TIMEINFO->: J/JK contribution 0.06 sec.
   19     -75.3907261627      3.24E-05 Normal BFGS step
TIMEINFO->: J/JK contribution 0.06 sec.
   20     -75.3907261631      4.94E-05 Normal BFGS step
TIMEINFO->: J/JK contribution 0.06 sec.
   21     -75.3907261645      3.62E-05 Normal BFGS step
TIMEINFO->: J/JK contribution 0.06 sec.
   22     -75.3907261678      1.54E-05 Normal BFGS step
TIMEINFO->: J/JK contribution 0.06 sec.
   23     -75.3907260742      5.82E-04 Line search: overstep
TIMEINFO->: J/JK contribution 0.06 sec.
   24     -75.3907261690      1.43E-05 Normal BFGS step
TIMEINFO->: J/JK contribution 0.06 sec.
   25     -75.3907261559      3.21E-04 Line search: overstep
TIMEINFO->: J/JK contribution 0.06 sec.
   26     -75.3907261703      2.66E-05 Normal BFGS step
TIMEINFO->: J/JK contribution 0.06 sec.
   27     -75.3907261713      7.02E-05 Normal BFGS step
TIMEINFO->: J/JK contribution 0.06 sec.
   28     -75.3907261730      2.92E-05 Normal BFGS step
TIMEINFO->: J/JK contribution 0.06 sec.
   29     -75.3907261742      2.95E-05 Normal BFGS step
TIMEINFO->: J/JK contribution 0.06 sec.
   30     -75.3907260950      4.47E-04 Line search: overstep
TIMEINFO->: J/JK contribution 0.07 sec.
   31     -75.3907261757      2.88E-05 Normal BFGS step
TIMEINFO->: J/JK contribution 0.06 sec.
   32     -75.3907261189      3.91E-04 Line search: overstep
TIMEINFO->: J/JK contribution 0.06 sec.
   33     -75.3907261772      2.88E-05 Normal BFGS step
TIMEINFO->: J/JK contribution 0.06 sec.
   34     -75.3907261660      2.19E-04 Line search: overstep
TIMEINFO->: J/JK contribution 0.06 sec.
   35     -75.3907261797      3.85E-05 Normal BFGS step
TIMEINFO->: J/JK contribution 0.06 sec.
   36     -75.3907261824      7.21E-05 Normal BFGS step
TIMEINFO->: J/JK contribution 0.06 sec.
   37     -75.3907261857      2.88E-05 Normal BFGS step
TIMEINFO->: J/JK contribution 0.06 sec.
   38     -75.3907261893      2.15E-05 Normal BFGS step
TIMEINFO->: J/JK contribution 0.06 sec.
   39     -75.3907261143      7.93E-04 Line search: overstep
TIMEINFO->: J/JK contribution 0.06 sec.
   40     -75.3907261911      2.29E-05 Normal BFGS step
TIMEINFO->: J/JK contribution 0.06 sec.
   41     -75.3907261754      5.59E-04 Line search: overstep
TIMEINFO->: J/JK contribution 0.06 sec.
   42     -75.3907261941      3.96E-05 Normal BFGS step
TIMEINFO->: J/JK contribution 0.06 sec.
   43     -75.3907261968      9.81E-05 Normal BFGS step
TIMEINFO->: J/JK contribution 0.06 sec.
   44     -75.3907261999      3.49E-05 Normal BFGS step
TIMEINFO->: J/JK contribution 0.07 sec.
   45     -75.3907262037      2.99E-05 Normal BFGS step
TIMEINFO->: J/JK contribution 0.06 sec.
   46     -75.3907261742      3.19E-04 Line search: overstep
TIMEINFO->: J/JK contribution 0.06 sec.
   47     -75.3907262073      4.27E-05 Normal BFGS step
TIMEINFO->: J/JK contribution 0.06 sec.
   48     -75.3907262023      1.99E-04 Line search: overstep
TIMEINFO->: J/JK contribution 0.06 sec.
   49     -75.3907262112      5.92E-05 Normal BFGS step
TIMEINFO->: J/JK contribution 0.06 sec.
   50     -75.3907262164      4.91E-05 Normal BFGS step
TIMEINFO->: J/JK contribution 0.06 sec.
   51     -75.3907262216      3.72E-05 Normal BFGS step
TIMEINFO->: J/JK contribution 0.06 sec.
   52     -75.3907261390      4.73E-04 Line search: overstep
TIMEINFO->: J/JK contribution 0.06 sec.
   53     -75.3907262244      4.22E-05 Normal BFGS step
TIMEINFO->: J/JK contribution 0.06 sec.
   54     -75.3907261943      3.48E-04 Line search: overstep
TIMEINFO->: J/JK contribution 0.06 sec.
   55     -75.3907262296      4.46E-05 Normal BFGS step
TIMEINFO->: J/JK contribution 0.06 sec.
   56     -75.3907262346      1.26E-04 Normal BFGS step
TIMEINFO->: J/JK contribution 0.06 sec.
   57     -75.3907262411      3.94E-05 Normal BFGS step
TIMEINFO->: J/JK contribution 0.07 sec.
   58     -75.3907262467      2.90E-05 Normal BFGS step
TIMEINFO->: J/JK contribution 0.06 sec.
   59     -75.3907262369      2.76E-04 Line search: overstep
TIMEINFO->: J/JK contribution 0.06 sec.
   60     -75.3907262502      5.55E-05 Normal BFGS step
TIMEINFO->: J/JK contribution 0.06 sec.
   61     -75.3907262540      8.19E-05 Normal BFGS step
TIMEINFO->: J/JK contribution 0.06 sec.
   62     -75.3907262593      4.31E-05 Normal BFGS step
TIMEINFO->: J/JK contribution 0.06 sec.
   63     -75.3907262699      4.55E-05 Normal BFGS step
TIMEINFO->: J/JK contribution 0.06 sec.
   64     -75.3907262829      8.84E-05 Normal BFGS step
TIMEINFO->: J/JK contribution 0.06 sec.
   GDM::WARNING energy changes are now smaller than effective accuracy.
   GDM::        calculation will continue, but THRESH should be increased
   GDM::        or SCF_CONVERGENCE decreased.
   GDM::        effective_thresh =   2.497038881221769E-009
   65     -75.3907262815      8.15E-05 Normal BFGS step
TIMEINFO->: J/JK contribution 0.06 sec.
   66     -75.3907262954      1.10E-04 Normal BFGS step
TIMEINFO->: J/JK contribution 0.06 sec.
   67     -75.3907262991      1.34E-05 Normal BFGS step
TIMEINFO->: J/JK contribution 0.06 sec.
   68     -75.3907263040      2.39E-05 Normal BFGS step
TIMEINFO->: J/JK contribution 0.06 sec.
   69     -75.3907262353      6.06E-04 Line search: overstep
TIMEINFO->: J/JK contribution 0.06 sec.
   70     -75.3907263065      3.88E-05 Normal BFGS step
TIMEINFO->: J/JK contribution 0.06 sec.
   GDM::WARNING energy changes are now smaller than effective accuracy.
   GDM::        calculation will continue, but THRESH should be increased
   GDM::        or SCF_CONVERGENCE decreased.
   GDM::        effective_thresh =   2.497038881221769E-009
   71     -75.3907263062      1.41E-04 Normal BFGS step
TIMEINFO->: J/JK contribution 0.06 sec.
   72     -75.3907263141      4.28E-05 Normal BFGS step
TIMEINFO->: J/JK contribution 0.06 sec.
   73     -75.3907263183      3.40E-05 Normal BFGS step
TIMEINFO->: J/JK contribution 0.06 sec.
   74     -75.3907263033      3.12E-04 Line search: overstep
TIMEINFO->: J/JK contribution 0.06 sec.
   75     -75.3907263272      5.39E-05 Normal BFGS step
TIMEINFO->: J/JK contribution 0.06 sec.
   76     -75.3907263296      1.40E-04 Normal BFGS step
TIMEINFO->: J/JK contribution 0.06 sec.
   77     -75.3907263405      1.04E-05 Normal BFGS step
TIMEINFO->: J/JK contribution 0.06 sec.
   78     -75.3907263447      1.97E-05 Normal BFGS step
TIMEINFO->: J/JK contribution 0.07 sec.
   79     -75.3907263005      4.63E-04 Line search: overstep
TIMEINFO->: J/JK contribution 0.06 sec.
   80     -75.3907263476      3.40E-05 Normal BFGS step
TIMEINFO->: J/JK contribution 0.06 sec.
   GDM::WARNING energy changes are now smaller than effective accuracy.
   GDM::        calculation will continue, but THRESH should be increased
   GDM::        or SCF_CONVERGENCE decreased.
   GDM::        effective_thresh =   2.497038881221769E-009
   81     -75.3907263458      1.38E-04 Normal BFGS step
TIMEINFO->: J/JK contribution 0.06 sec.
   82     -75.3907263545      2.64E-05 Normal BFGS step
TIMEINFO->: J/JK contribution 0.06 sec.
   83     -75.3907263582      6.76E-05 Line search: understep
TIMEINFO->: J/JK contribution 0.06 sec.
   84     -75.3907263049      4.18E-04 Line search: overstep
TIMEINFO->: J/JK contribution 0.07 sec.
   85     -75.3907263613      2.72E-05 Normal BFGS step
TIMEINFO->: J/JK contribution 0.06 sec.
   86     -75.3907262832      5.32E-04 Line search: overstep
TIMEINFO->: J/JK contribution 0.06 sec.
   87     -75.3907263654      3.95E-05 Normal BFGS step
TIMEINFO->: J/JK contribution 0.06 sec.
   88     -75.3907263586      2.49E-04 Line search: overstep
TIMEINFO->: J/JK contribution 0.06 sec.
   89     -75.3907263716      6.43E-05 Normal BFGS step
TIMEINFO->: J/JK contribution 0.06 sec.
   90     -75.3907263795      7.37E-05 Normal BFGS step
TIMEINFO->: J/JK contribution 0.06 sec.
   91     -75.3907263858      1.57E-05 Normal BFGS step
TIMEINFO->: J/JK contribution 0.06 sec.
   92     -75.3907263900      6.52E-05 Normal BFGS step
TIMEINFO->: J/JK contribution 0.06 sec.
   93     -75.3907263942      3.56E-05 Normal BFGS step
TIMEINFO->: J/JK contribution 0.06 sec.
   94     -75.3907264044      6.20E-05 Normal BFGS step
TIMEINFO->: J/JK contribution 0.06 sec.
   95     -75.3907264091      1.33E-05 Normal BFGS step
TIMEINFO->: J/JK contribution 0.06 sec.
   96     -75.3907264113      9.08E-05 Normal BFGS step
TIMEINFO->: J/JK contribution 0.07 sec.
   97     -75.3907264175      1.18E-05 Normal BFGS step
TIMEINFO->: J/JK contribution 0.07 sec.
   98     -75.3907264222      1.59E-05 Normal BFGS step
TIMEINFO->: J/JK contribution 0.06 sec.
   99     -75.3907263622      4.29E-04 Line search: overstep
TIMEINFO->: J/JK contribution 0.06 sec.
  100     -75.3907264241      2.50E-05 Normal BFGS step
TIMEINFO->: J/JK contribution 0.06 sec.
  101     -75.3907264177      2.03E-04 Line search: overstep
TIMEINFO->: J/JK contribution 0.06 sec.
  102     -75.3907264271      4.06E-05 Normal BFGS step
TIMEINFO->: J/JK contribution 0.06 sec.
  103     -75.3907264300      6.37E-05 Normal BFGS step
TIMEINFO->: J/JK contribution 0.06 sec.
  104     -75.3907264340      1.63E-05 Normal BFGS step
TIMEINFO->: J/JK contribution 0.06 sec.
  105     -75.3907264383      3.37E-05 Normal BFGS step
TIMEINFO->: J/JK contribution 0.06 sec.
  106     -75.3907264419      6.18E-05 Normal BFGS step
TIMEINFO->: J/JK contribution 0.07 sec.
  107     -75.3907264437      2.43E-05 Normal BFGS step
TIMEINFO->: J/JK contribution 0.06 sec.
  108     -75.3907264471      1.96E-05 Normal BFGS step
TIMEINFO->: J/JK contribution 0.07 sec.
  109     -75.3907264482      4.04E-05 Normal BFGS step
TIMEINFO->: J/JK contribution 0.07 sec.
  110     -75.3907264497      1.48E-05 Normal BFGS step
TIMEINFO->: J/JK contribution 0.06 sec.
  111     -75.3907264512      1.98E-05 Normal BFGS step
TIMEINFO->: J/JK contribution 0.07 sec.
  112     -75.3907264533      3.92E-05 Normal BFGS step
TIMEINFO->: J/JK contribution 0.06 sec.
  113     -75.3907264541      1.79E-05 Normal BFGS step
TIMEINFO->: J/JK contribution 0.06 sec.
  114     -75.3907264558      1.54E-05 Normal BFGS step
TIMEINFO->: J/JK contribution 0.06 sec.
  115     -75.3907264562      2.59E-05 Normal BFGS step
TIMEINFO->: J/JK contribution 0.06 sec.
  116     -75.3907264567      8.97E-06 Normal BFGS step
TIMEINFO->: J/JK contribution 0.06 sec.
  117     -75.3907264573      6.29E-06 Normal BFGS step
TIMEINFO->: J/JK contribution 0.06 sec.
  118     -75.3907264574      3.17E-05 Normal BFGS step
TIMEINFO->: J/JK contribution 0.06 sec.
  119     -75.3907264579      4.74E-06 Normal BFGS step
TIMEINFO->: J/JK contribution 0.07 sec.
  120     -75.3907264581      3.61E-06 Normal BFGS step
TIMEINFO->: J/JK contribution 0.06 sec.
  121     -75.3907264582      1.95E-05 Normal BFGS step
TIMEINFO->: J/JK contribution 0.06 sec.
  122     -75.3907264584      3.82E-06 Normal BFGS step
TIMEINFO->: J/JK contribution 0.06 sec.
  123     -75.3907264585      3.16E-06 Normal BFGS step
TIMEINFO->: J/JK contribution 0.06 sec.
  124     -75.3907264586      8.50E-06 Normal BFGS step
TIMEINFO->: J/JK contribution 0.06 sec.
  125     -75.3907264586      9.80E-07 Normal BFGS step
TIMEINFO->: J/JK contribution 0.06 sec.
  126     -75.3907264586      5.79E-07 Normal BFGS step
TIMEINFO->: J/JK contribution 0.07 sec.
  127     -75.3907264587      1.07E-06 Normal BFGS step
TIMEINFO->: J/JK contribution 0.06 sec.
  128     -75.3907264587      1.26E-08 Normal BFGS step
TIMEINFO->: J/JK contribution 0.06 sec.
  129     -75.3907264587      7.34E-09 Convergence criterion met
 ---------------------------------------
 SCF time:  CPU 13.29 s  wall 3.47 s
 SCF   energy in the final basis set = -75.39072646
 Total energy in the final basis set = -75.39072646
 
 --------------------------------------------------------------
 
                    Orbital Energies (a.u.)
 --------------------------------------------------------------
 
 Alpha MOs
 -- Occupied --
-20.577  -1.374  -0.715  -0.579  -0.669  -0.272
 -- Virtual --
  0.170   1.031   1.117   1.620   1.692   2.154   2.729
 
 Beta MOs
 -- Occupied --
-20.531  -1.181  -0.606  -0.522
 -- Virtual --
  0.174   0.144   0.309   1.107   1.206   1.808   1.724   2.197
  2.816
 --------------------------------------------------------------
 
          Ground-State Mulliken Net Atomic Charges

     Atom                 Charge (a.u.)
  ----------------------------------------
      1 O                    -0.234622
      2 H                     0.117311
      3 H                     0.117311
  ----------------------------------------
  Sum of atomic charges =     0.000000

 -----------------------------------------------------------------
                    Cartesian Multipole Moments
 -----------------------------------------------------------------
    Charge (ESU x 10^10)
                 0.0000
    Dipole Moment (Debye)
         X       0.0013      Y       0.0015      Z      -0.0000
       Tot       0.0020
    Quadrupole Moments (Debye-Ang)
        XX      -7.1159     XY      -0.5085     YY      -7.2579
        XZ       0.0000     YZ      -0.0000     ZZ      -6.0604
    Octopole Moments (Debye-Ang^2)
       XXX       0.0150    XXY       0.0002    XYY       0.0054
       YYY      -0.0023    XXZ      -0.0000    XYZ       0.0000
       YYZ      -0.0000    XZZ       0.0052    YZZ       0.0004
       ZZZ      -0.0000
    Hexadecapole Moments (Debye-Ang^3)
      XXXX      -4.9666   XXXY      -0.2275   XXYY      -1.6767
      XYYY      -0.2275   YYYY      -5.0936   XXXZ       0.0000
      XXYZ      -0.0000   XYYZ       0.0000   YYYZ      -0.0000
      XXZZ      -5.2113   XYZZ      -0.0758   YYZZ      -5.2324
      XZZZ       0.0000   YZZZ      -0.0000   ZZZZ     -24.1391
 -----------------------------------------------------------------
 Calculating analytic gradient of the SCF energy
 Gradient of SCF Energy
            1           2           3
    1  -0.0000439   0.0000220   0.0000220
    2  -0.0000505   0.0000252   0.0000252
    3   0.0000000  -0.0109635   0.0109635
 Max gradient component =       1.096E-02
 RMS gradient           =       5.168E-03
 Gradient time:  CPU 0.22 s  wall 0.06 s
 ----------------------------------------------------------------
             Standard Nuclear Orientation (Angstroms)
    I     Atom           X                Y                Z
 ----------------------------------------------------------------
    1      O       0.0000000000     0.0007701428    -0.0000000000
    2      H      -0.0000000000     0.0009194289    -1.2568516685
    3      H      -0.0000000000     0.0009194289     1.2568516685
 ----------------------------------------------------------------
 Nuclear Repulsion Energy =     6.9470599732 hartrees
 There are        6 alpha and        4 beta electrons

                       Distance Matrix (Angstroms)
             O (  1)   H (  2)
   H (  2)  1.256852
   H (  3)  1.256852  2.513703
 
 Requested basis set is 3-21G
 There are 7 shells and 13 basis functions
 A cutoff of  1.0D-12 yielded     28 shell pairs
 There are       103 function pairs
 Smallest overlap matrix eigenvalue = 1.61E-01
 Guess MOs from SCF MO coefficient file
 Reading MOs from coefficient file
 Reading MOs from coefficient file
 A restricted Hartree-Fock SCF calculation will be
 performed using Geometric Direct Minimization
 SCF converges when RMS gradient is below 1.0E-08
 using 4 threads for integral computing
 -------------------------------------------------------
 OpenMP Integral computing Module                
 Release: version 1.0, May 2013, Q-Chem Inc. Pittsburgh 
 -------------------------------------------------------
TIMEINFO->: J/JK contribution 0.08 sec.
 ---------------------------------------
  Cycle       Energy        RMS Gradient
 ---------------------------------------
    1     -75.3907271946      3.79E-04 Normal BFGS step
TIMEINFO->: J/JK contribution 0.06 sec.
    2     -75.3907265275      1.73E-04 Normal BFGS step
TIMEINFO->: J/JK contribution 0.06 sec.
    3     -75.3907265518      3.07E-05 Normal BFGS step
TIMEINFO->: J/JK contribution 0.06 sec.
    4     -75.3907265527      9.91E-06 Normal BFGS step
TIMEINFO->: J/JK contribution 0.06 sec.
    5     -75.3907265528      2.04E-07 Normal BFGS step
TIMEINFO->: J/JK contribution 0.06 sec.
    6     -75.3907265528      3.40E-08 Normal BFGS step
TIMEINFO->: J/JK contribution 0.06 sec.
   GDM::WARNING energy changes are now smaller than effective accuracy.
   GDM::        calculation will continue, but THRESH should be increased
   GDM::        or SCF_CONVERGENCE decreased.
   GDM::        effective_thresh =   6.000000000000000E-011
    7     -75.3907265528      1.38E-08 Normal BFGS step
TIMEINFO->: J/JK contribution 0.06 sec.
    8     -75.3907265528      3.30E-09 Convergence criterion met
 ---------------------------------------
 SCF time:  CPU 0.66 s  wall 0.17 s
 SCF   energy in the final basis set = -75.39072655
 Total energy in the final basis set = -75.39072655
 
 --------------------------------------------------------------
 
                    Orbital Energies (a.u.)
 --------------------------------------------------------------
 
 Alpha MOs
 -- Occupied --
-20.577  -1.374  -0.715  -0.579  -0.669  -0.272
 -- Virtual --
  0.170   1.031   1.117   1.620   1.692   2.154   2.729
 
 Beta MOs
 -- Occupied --
-20.531  -1.181  -0.606  -0.522
 -- Virtual --
  0.174   0.144   0.309   1.107   1.206   1.808   1.724   2.197
  2.816
 --------------------------------------------------------------
 
          Ground-State Mulliken Net Atomic Charges

     Atom                 Charge (a.u.)
  ----------------------------------------
      1 O                    -0.234623
      2 H                     0.117311
      3 H                     0.117311
  ----------------------------------------
  Sum of atomic charges =    -0.000000

 -----------------------------------------------------------------
                    Cartesian Multipole Moments
 -----------------------------------------------------------------
    Charge (ESU x 10^10)
                -0.0000
    Dipole Moment (Debye)
         X       0.0000      Y       0.0002      Z      -0.0000
       Tot       0.0002
    Quadrupole Moments (Debye-Ang)
        XX      -7.1159     XY      -0.5085     YY      -7.2579
        XZ       0.0000     YZ      -0.0000     ZZ      -6.0604
    Octopole Moments (Debye-Ang^2)
       XXX       0.0000    XXY      -0.0058    XYY      -0.0008
       YYY      -0.0177    XXZ      -0.0000    XYZ       0.0000
       YYZ      -0.0000    XZZ      -0.0000    YZZ      -0.0048
       ZZZ      -0.0000
    Hexadecapole Moments (Debye-Ang^3)
      XXXX      -4.9666   XXXY      -0.2275   XXYY      -1.6767
      XYYY      -0.2275   YYYY      -5.0936   XXXZ       0.0000
      XXYZ      -0.0000   XYYZ       0.0000   YYYZ      -0.0000
      XXZZ      -5.2113   XYZZ      -0.0758   YYZZ      -5.2324
      XZZZ       0.0000   YZZZ      -0.0000   ZZZZ     -24.1391
 -----------------------------------------------------------------
 Calculating analytic gradient of the SCF energy
 Gradient of SCF Energy
            1           2           3
    1   0.0000102  -0.0000051  -0.0000051
    2  -0.0000154   0.0000077   0.0000077
    3   0.0000000  -0.0109632   0.0109632
 Max gradient component =       1.096E-02
 RMS gradient           =       5.168E-03
 Gradient time:  CPU 0.20 s  wall 0.05 s
 ----------------------------------------------------------------
             Standard Nuclear Orientation (Angstroms)
    I     Atom           X                Y                Z
 ----------------------------------------------------------------
    1      O       0.0000000000    -0.0012298572    -0.0000000000
    2      H      -0.0000000000     0.0009194289    -1.2568516685
    3      H      -0.0000000000     0.0009194289     1.2568516685
 ----------------------------------------------------------------
 Nuclear Repulsion Energy =     6.9470501709 hartrees
 There are        6 alpha and        4 beta electrons

                       Distance Matrix (Angstroms)
             O (  1)   H (  2)
   H (  2)  1.256854
   H (  3)  1.256854  2.513703
 
 Requested basis set is 3-21G
 There are 7 shells and 13 basis functions
 A cutoff of  1.0D-12 yielded     28 shell pairs
 There are       103 function pairs
 Smallest overlap matrix eigenvalue = 1.61E-01
 Guess MOs from SCF MO coefficient file
 Reading MOs from coefficient file
 Reading MOs from coefficient file
 A restricted Hartree-Fock SCF calculation will be
 performed using Geometric Direct Minimization
 SCF converges when RMS gradient is below 1.0E-08
 using 4 threads for integral computing
 -------------------------------------------------------
 OpenMP Integral computing Module                
 Release: version 1.0, May 2013, Q-Chem Inc. Pittsburgh 
 -------------------------------------------------------
TIMEINFO->: J/JK contribution 0.08 sec.
 ---------------------------------------
  Cycle       Energy        RMS Gradient
 ---------------------------------------
    1     -75.3907253586      4.05E-04 Normal BFGS step
TIMEINFO->: J/JK contribution 0.07 sec.
    2     -75.3907260730      1.85E-04 Normal BFGS step
TIMEINFO->: J/JK contribution 0.06 sec.
    3     -75.3907261020      3.27E-05 Normal BFGS step
TIMEINFO->: J/JK contribution 0.06 sec.
    4     -75.3907261036      1.07E-05 Normal BFGS step
TIMEINFO->: J/JK contribution 0.06 sec.
    5     -75.3907261037      1.19E-06 Normal BFGS step
TIMEINFO->: J/JK contribution 0.06 sec.
    6     -75.3907261037      6.83E-07 Normal BFGS step
TIMEINFO->: J/JK contribution 0.06 sec.
    7     -75.3907261037      6.83E-07 Normal BFGS step
TIMEINFO->: J/JK contribution 0.06 sec.
    8     -75.3907261037      7.44E-07 Normal BFGS step
TIMEINFO->: J/JK contribution 0.06 sec.
    9     -75.3907261037      1.76E-06 Normal BFGS step
TIMEINFO->: J/JK contribution 0.06 sec.
   10     -75.3907261038      3.29E-06 Normal BFGS step
TIMEINFO->: J/JK contribution 0.06 sec.
   11     -75.3907261038      5.85E-06 Normal BFGS step
TIMEINFO->: J/JK contribution 0.06 sec.
   12     -75.3907261038      9.95E-06 Normal BFGS step
TIMEINFO->: J/JK contribution 0.06 sec.
   13     -75.3907261040      1.66E-05 Normal BFGS step
TIMEINFO->: J/JK contribution 0.06 sec.
   14     -75.3907261045      2.74E-05 Normal BFGS step
TIMEINFO->: J/JK contribution 0.06 sec.
   15     -75.3907261058      4.48E-05 Normal BFGS step
TIMEINFO->: J/JK contribution 0.06 sec.
   16     -75.3907261092      7.27E-05 Normal BFGS step
TIMEINFO->: J/JK contribution 0.07 sec.
   17     -75.3907261167      1.14E-04 Normal BFGS step
TIMEINFO->: J/JK contribution 0.06 sec.
   18     -75.3907261259      1.35E-04 Normal BFGS step
TIMEINFO->: J/JK contribution 0.06 sec.
   19     -75.3907261468      9.90E-05 Normal BFGS step
TIMEINFO->: J/JK contribution 0.06 sec.
   20     -75.3907261818      5.66E-05 Normal BFGS step
TIMEINFO->: J/JK contribution 0.07 sec.
   21     -75.3907261137      6.09E-04 Line search: overstep
TIMEINFO->: J/JK contribution 0.06 sec.
   22     -75.3907261869      6.38E-05 Normal BFGS step
TIMEINFO->: J/JK contribution 0.06 sec.
   23     -75.3907261945      1.02E-04 Normal BFGS step
TIMEINFO->: J/JK contribution 0.06 sec.
   24     -75.3907262046      8.69E-05 Normal BFGS step
TIMEINFO->: J/JK contribution 0.06 sec.
   25     -75.3907262291      7.18E-05 Normal BFGS step
TIMEINFO->: J/JK contribution 0.06 sec.
   26     -75.3907262461      4.24E-05 Normal BFGS step
TIMEINFO->: J/JK contribution 0.06 sec.
   27     -75.3907248577      1.77E-03 Line search: overstep
TIMEINFO->: J/JK contribution 0.06 sec.
   28     -75.3907262536      4.48E-05 Normal BFGS step
TIMEINFO->: J/JK contribution 0.06 sec.
   29     -75.3907262410      3.81E-04 Line search: overstep
TIMEINFO->: J/JK contribution 0.06 sec.
   30     -75.3907262626      8.16E-05 Normal BFGS step
TIMEINFO->: J/JK contribution 0.06 sec.
   31     -75.3907262756      1.10E-04 Normal BFGS step
TIMEINFO->: J/JK contribution 0.06 sec.
   32     -75.3907262892      4.59E-05 Normal BFGS step
TIMEINFO->: J/JK contribution 0.06 sec.
   33     -75.3907262987      9.16E-05 Normal BFGS step
TIMEINFO->: J/JK contribution 0.06 sec.
   34     -75.3907263099      5.21E-05 Normal BFGS step
TIMEINFO->: J/JK contribution 0.06 sec.
   35     -75.3907263170      1.16E-04 Normal BFGS step
TIMEINFO->: J/JK contribution 0.06 sec.
   36     -75.3907263263      4.66E-05 Normal BFGS step
TIMEINFO->: J/JK contribution 0.06 sec.
   37     -75.3907263354      3.30E-05 Normal BFGS step
TIMEINFO->: J/JK contribution 0.06 sec.
   38     -75.3907263360      9.96E-05 Normal BFGS step
TIMEINFO->: J/JK contribution 0.06 sec.
   39     -75.3907263417      2.11E-05 Normal BFGS step
TIMEINFO->: J/JK contribution 0.06 sec.
   40     -75.3907263443      1.89E-05 Normal BFGS step
TIMEINFO->: J/JK contribution 0.06 sec.
   41     -75.3907263431      1.62E-04 Line search: overstep
TIMEINFO->: J/JK contribution 0.06 sec.
   42     -75.3907263492      3.83E-05 Normal BFGS step
TIMEINFO->: J/JK contribution 0.06 sec.
   43     -75.3907263526      5.37E-05 Normal BFGS step
TIMEINFO->: J/JK contribution 0.06 sec.
   44     -75.3907263570      1.03E-05 Normal BFGS step
TIMEINFO->: J/JK contribution 0.06 sec.
   45     -75.3907263586      5.10E-05 Normal BFGS step
TIMEINFO->: J/JK contribution 0.06 sec.
   46     -75.3907263600      5.97E-06 Normal BFGS step
TIMEINFO->: J/JK contribution 0.06 sec.
   47     -75.3907263611      7.45E-06 Normal BFGS step
TIMEINFO->: J/JK contribution 0.06 sec.
   GDM::WARNING energy changes are now smaller than effective accuracy.
   GDM::        calculation will continue, but THRESH should be increased
   GDM::        or SCF_CONVERGENCE decreased.
   GDM::        effective_thresh =   6.239075645009251E-010
   48     -75.3907263607      5.31E-05 Normal BFGS step
TIMEINFO->: J/JK contribution 0.06 sec.
   49     -75.3907263622      1.93E-06 Normal BFGS step
TIMEINFO->: J/JK contribution 0.06 sec.
   50     -75.3907263626      1.75E-06 Normal BFGS step
TIMEINFO->: J/JK contribution 0.06 sec.
   GDM::WARNING energy changes are now smaller than effective accuracy.
   GDM::        calculation will continue, but THRESH should be increased
   GDM::        or SCF_CONVERGENCE decreased.
   GDM::        effective_thresh =   6.239075645009251E-010
   51     -75.3907263623      3.32E-05 Normal BFGS step
TIMEINFO->: J/JK contribution 0.06 sec.
   52     -75.3907263630      1.23E-06 Normal BFGS step
TIMEINFO->: J/JK contribution 0.06 sec.
   53     -75.3907263631      2.56E-06 Normal BFGS step
TIMEINFO->: J/JK contribution 0.06 sec.
   54     -75.3907263632      8.66E-06 Normal BFGS step
TIMEINFO->: J/JK contribution 0.06 sec.
   55     -75.3907263633      2.94E-06 Normal BFGS step
TIMEINFO->: J/JK contribution 0.07 sec.
   56     -75.3907263633      7.27E-07 Normal BFGS step
TIMEINFO->: J/JK contribution 0.07 sec.
   57     -75.3907263633      1.40E-07 Normal BFGS step
TIMEINFO->: J/JK contribution 0.07 sec.
   58     -75.3907263633      1.04E-07 Normal BFGS step
TIMEINFO->: J/JK contribution 0.06 sec.
   GDM::WARNING energy changes are now smaller than effective accuracy.
   GDM::        calculation will continue, but THRESH should be increased
   GDM::        or SCF_CONVERGENCE decreased.
   GDM::        effective_thresh =   6.239075645009251E-010
   59     -75.3907263633      8.50E-08 Normal BFGS step
TIMEINFO->: J/JK contribution 0.06 sec.
   GDM::WARNING energy changes are now smaller than effective accuracy.
   GDM::        calculation will continue, but THRESH should be increased
   GDM::        or SCF_CONVERGENCE decreased.
   GDM::        effective_thresh =   6.239075645009251E-010
   60     -75.3907263633      5.77E-08 Normal BFGS step
TIMEINFO->: J/JK contribution 0.06 sec.
   GDM::WARNING energy changes are now smaller than effective accuracy.
   GDM::        calculation will continue, but THRESH should be increased
   GDM::        or SCF_CONVERGENCE decreased.
   GDM::        effective_thresh =   6.239075645009251E-010
   61     -75.3907263633      3.86E-08 Normal BFGS step
TIMEINFO->: J/JK contribution 0.06 sec.
   GDM::WARNING energy changes are now smaller than effective accuracy.
   GDM::        calculation will continue, but THRESH should be increased
   GDM::        or SCF_CONVERGENCE decreased.
   GDM::        effective_thresh =   6.239075645009251E-010
   62     -75.3907263633      8.01E-09 Convergence criterion met
 ---------------------------------------
 SCF time:  CPU 6.39 s  wall 1.67 s
 SCF   energy in the final basis set = -75.39072636
 Total energy in the final basis set = -75.39072636
 
 --------------------------------------------------------------
 
                    Orbital Energies (a.u.)
 --------------------------------------------------------------
 
 Alpha MOs
 -- Occupied --
-20.577  -1.374  -0.715  -0.579  -0.669  -0.272
 -- Virtual --
  0.170   1.031   1.117   1.620   1.692   2.154   2.729
 
 Beta MOs
 -- Occupied --
-20.531  -1.181  -0.606  -0.522
 -- Virtual --
  0.174   0.144   0.309   1.107   1.206   1.808   1.724   2.197
  2.816
 --------------------------------------------------------------
 
          Ground-State Mulliken Net Atomic Charges

     Atom                 Charge (a.u.)
  ----------------------------------------
      1 O                    -0.234621
      2 H                     0.117310
      3 H                     0.117310
  ----------------------------------------
  Sum of atomic charges =     0.000000

 -----------------------------------------------------------------
                    Cartesian Multipole Moments
 -----------------------------------------------------------------
    Charge (ESU x 10^10)
                 0.0000
    Dipole Moment (Debye)
         X      -0.0000      Y       0.0029      Z       0.0000
       Tot       0.0029
    Quadrupole Moments (Debye-Ang)
        XX      -6.6735     XY       0.0000     YY      -7.7003
        XZ       0.0000     YZ       0.0000     ZZ      -6.0604
    Octopole Moments (Debye-Ang^2)
       XXX      -0.0000    XXY       0.0036    XYY      -0.0000
       YYY       0.0147    XXZ       0.0000    XYZ      -0.0000
       YYZ       0.0000    XZZ       0.0000    YZZ       0.0057
       ZZZ       0.0000
    Hexadecapole Moments (Debye-Ang^3)
      XXXX      -4.5706   XXXY       0.0000   XXYY      -1.6767
      XYYY       0.0000   YYYY      -5.4896   XXXZ       0.0000
      XXYZ       0.0000   XYYZ       0.0000   YYYZ       0.0000
      XXZZ      -5.1453   XYZZ       0.0000   YYZZ      -5.2984
      XZZZ       0.0000   YZZZ       0.0000   ZZZZ     -24.1391
 -----------------------------------------------------------------
 Calculating analytic gradient of the SCF energy
 Gradient of SCF Energy
            1           2           3
    1  -0.0000000   0.0000000   0.0000000
    2  -0.0000944   0.0000472   0.0000472
    3  -0.0000000  -0.0109638   0.0109638
 Max gradient component =       1.096E-02
 RMS gradient           =       5.169E-03
 Gradient time:  CPU 0.22 s  wall 0.06 s
 ----------------------------------------------------------------
             Standard Nuclear Orientation (Angstroms)
    I     Atom           X                Y                Z
 ----------------------------------------------------------------
    1      O       0.0000000000    -0.0002298572     0.0010000000
    2      H      -0.0000000000     0.0009194289    -1.2568516685
    3      H      -0.0000000000     0.0009194289     1.2568516685
 ----------------------------------------------------------------
 Nuclear Repulsion Energy =     6.9470614688 hartrees
 There are        6 alpha and        4 beta electrons

                       Distance Matrix (Angstroms)
             O (  1)   H (  2)
   H (  2)  1.257852
   H (  3)  1.255852  2.513703
 
 Requested basis set is 3-21G
 There are 7 shells and 13 basis functions
 A cutoff of  1.0D-12 yielded     28 shell pairs
 There are       103 function pairs
 Smallest overlap matrix eigenvalue = 1.61E-01
 Guess MOs from SCF MO coefficient file
 Reading MOs from coefficient file
 Reading MOs from coefficient file
 A restricted Hartree-Fock SCF calculation will be
 performed using Geometric Direct Minimization
 SCF converges when RMS gradient is below 1.0E-08
 using 4 threads for integral computing
 -------------------------------------------------------
 OpenMP Integral computing Module                
 Release: version 1.0, May 2013, Q-Chem Inc. Pittsburgh 
 -------------------------------------------------------
TIMEINFO->: J/JK contribution 0.08 sec.
 ---------------------------------------
  Cycle       Energy        RMS Gradient
 ---------------------------------------
    1     -75.3907277431      1.25E-03 Normal BFGS step
TIMEINFO->: J/JK contribution 0.06 sec.
    2     -75.3907272699      8.55E-04 Normal BFGS step
TIMEINFO->: J/JK contribution 0.06 sec.
    3     -75.3907286796      5.42E-04 Normal BFGS step
TIMEINFO->: J/JK contribution 0.06 sec.
    4     -75.3907295758      2.95E-04 Normal BFGS step
TIMEINFO->: J/JK contribution 0.06 sec.
    5     -75.3907298509      1.01E-04 Normal BFGS step
TIMEINFO->: J/JK contribution 0.06 sec.
    6     -75.3907298707      2.76E-05 Normal BFGS step
TIMEINFO->: J/JK contribution 0.07 sec.
    7     -75.3907298717      4.83E-06 Normal BFGS step
TIMEINFO->: J/JK contribution 0.06 sec.
    8     -75.3907298717      1.00E-06 Normal BFGS step
TIMEINFO->: J/JK contribution 0.06 sec.
    9     -75.3907298717      2.50E-07 Normal BFGS step
TIMEINFO->: J/JK contribution 0.06 sec.
   10     -75.3907298717      6.88E-08 Normal BFGS step
TIMEINFO->: J/JK contribution 0.06 sec.
   11     -75.3907298717      2.04E-08 Normal BFGS step
TIMEINFO->: J/JK contribution 0.06 sec.
   12     -75.3907298717      1.10E-08 Normal BFGS step
TIMEINFO->: J/JK contribution 0.06 sec.
   13     -75.3907298717      6.68E-10 Convergence criterion met
 ---------------------------------------
 SCF time:  CPU 1.15 s  wall 0.30 s
 SCF   energy in the final basis set = -75.39072987
 Total energy in the final basis set = -75.39072987
 
 --------------------------------------------------------------
 
                    Orbital Energies (a.u.)
 --------------------------------------------------------------
 
 Alpha MOs
 -- Occupied --
-20.577  -1.374  -0.715  -0.579  -0.669  -0.272
 -- Virtual --
  0.170   1.031   1.117   1.620   1.692   2.154   2.729
 
 Beta MOs
 -- Occupied --
-20.531  -1.181  -0.606  -0.522
 -- Virtual --
  0.174   0.144   0.309   1.107   1.206   1.808   1.724   2.197
  2.816
 --------------------------------------------------------------
 
          Ground-State Mulliken Net Atomic Charges

     Atom                 Charge (a.u.)
  ----------------------------------------
      1 O                    -0.234629
      2 H                     0.113753
      3 H                     0.120876
  ----------------------------------------
  Sum of atomic charges =    -0.000000

 -----------------------------------------------------------------
                    Cartesian Multipole Moments
 -----------------------------------------------------------------
    Charge (ESU x 10^10)
                -0.0000
    Dipole Moment (Debye)
         X      -0.0000      Y       0.0015      Z       0.0513
       Tot       0.0513
    Quadrupole Moments (Debye-Ang)
        XX      -6.6735     XY       0.0000     YY      -7.7003
        XZ      -0.0000     YZ       0.0001     ZZ      -6.0604
    Octopole Moments (Debye-Ang^2)
       XXX      -0.0000    XXY      -0.0009    XYY      -0.0000
       YYY      -0.0020    XXZ       0.0150    XYZ       0.0000
       YYZ       0.0140    XZZ       0.0000    YZZ       0.0004
       ZZZ       0.1543
    Hexadecapole Moments (Debye-Ang^3)
      XXXX      -4.5706   XXXY       0.0000   XXYY      -1.6767
      XYYY       0.0000   YYYY      -5.4895   XXXZ      -0.0000
      XXYZ       0.0000   XYYZ      -0.0000   YYYZ       0.0001
      XXZZ      -5.1452   XYZZ       0.0000   YYZZ      -5.2984
      XZZZ      -0.0000   YZZZ       0.0002   ZZZZ     -24.1390
 -----------------------------------------------------------------
 Calculating analytic gradient of the SCF energy
 Gradient of SCF Energy
            1           2           3
    1  -0.0000000   0.0000000   0.0000000
    2  -0.0000505   0.0000236   0.0000269
    3  -0.0035670  -0.0091753   0.0127423
 Max gradient component =       1.274E-02
 RMS gradient           =       5.367E-03
 Gradient time:  CPU 0.22 s  wall 0.06 s
 ----------------------------------------------------------------
             Standard Nuclear Orientation (Angstroms)
    I     Atom           X                Y                Z
 ----------------------------------------------------------------
    1      O       0.0000000000    -0.0002298572    -0.0010000000
    2      H      -0.0000000000     0.0009194289    -1.2568516685
    3      H      -0.0000000000     0.0009194289     1.2568516685
 ----------------------------------------------------------------
 Nuclear Repulsion Energy =     6.9470614688 hartrees
 There are        6 alpha and        4 beta electrons

                       Distance Matrix (Angstroms)
             O (  1)   H (  2)
   H (  2)  1.255852
   H (  3)  1.257852  2.513703
 
 Requested basis set is 3-21G
 There are 7 shells and 13 basis functions
 A cutoff of  1.0D-12 yielded     28 shell pairs
 There are       103 function pairs
 Smallest overlap matrix eigenvalue = 1.61E-01
 Guess MOs from SCF MO coefficient file
 Reading MOs from coefficient file
 Reading MOs from coefficient file
 A restricted Hartree-Fock SCF calculation will be
 performed using Geometric Direct Minimization
 SCF converges when RMS gradient is below 1.0E-08
 using 4 threads for integral computing
 -------------------------------------------------------
 OpenMP Integral computing Module                
 Release: version 1.0, May 2013, Q-Chem Inc. Pittsburgh 
 -------------------------------------------------------
TIMEINFO->: J/JK contribution 0.08 sec.
 ---------------------------------------
  Cycle       Energy        RMS Gradient
 ---------------------------------------
    1     -75.3907051130      2.50E-03 Normal BFGS step
TIMEINFO->: J/JK contribution 0.07 sec.
    2     -75.3907195189      1.71E-03 Normal BFGS step
TIMEINFO->: J/JK contribution 0.07 sec.
    3     -75.3907252716      1.13E-03 Normal BFGS step
TIMEINFO->: J/JK contribution 0.06 sec.
    4     -75.3907289375      6.30E-04 Normal BFGS step
TIMEINFO->: J/JK contribution 0.07 sec.
    5     -75.3907298137      1.93E-04 Normal BFGS step
TIMEINFO->: J/JK contribution 0.07 sec.
    6     -75.3907298699      3.62E-05 Normal BFGS step
TIMEINFO->: J/JK contribution 0.07 sec.
    7     -75.3907298717      3.74E-06 Normal BFGS step
TIMEINFO->: J/JK contribution 0.07 sec.
    8     -75.3907298717      4.33E-07 Normal BFGS step
TIMEINFO->: J/JK contribution 0.07 sec.
    9     -75.3907298717      1.96E-07 Normal BFGS step
TIMEINFO->: J/JK contribution 0.06 sec.
   GDM::WARNING energy changes are now smaller than effective accuracy.
   GDM::        calculation will continue, but THRESH should be increased
   GDM::        or SCF_CONVERGENCE decreased.
   GDM::        effective_thresh =   7.270060872754947E-010
   10     -75.3907298717      1.97E-08 Normal BFGS step
TIMEINFO->: J/JK contribution 0.07 sec.
   GDM::WARNING energy changes are now smaller than effective accuracy.
   GDM::        calculation will continue, but THRESH should be increased
   GDM::        or SCF_CONVERGENCE decreased.
   GDM::        effective_thresh =   7.270060872754947E-010
   11     -75.3907298717      1.04E-08 Normal BFGS step
TIMEINFO->: J/JK contribution 0.07 sec.
   GDM::WARNING energy changes are now smaller than effective accuracy.
   GDM::        calculation will continue, but THRESH should be increased
   GDM::        or SCF_CONVERGENCE decreased.
   GDM::        effective_thresh =   7.270060872754947E-010
   12     -75.3907298717      1.63E-09 Convergence criterion met
 ---------------------------------------
 SCF time:  CPU 1.09 s  wall 0.29 s
 SCF   energy in the final basis set = -75.39072987
 Total energy in the final basis set = -75.39072987
 
 --------------------------------------------------------------
 
                    Orbital Energies (a.u.)
 --------------------------------------------------------------
 
 Alpha MOs
 -- Occupied --
-20.577  -1.374  -0.715  -0.579  -0.669  -0.272
 -- Virtual --
  0.170   1.031   1.117   1.620   1.692   2.154   2.729
 
 Beta MOs
 -- Occupied --
-20.531  -1.181  -0.606  -0.522
 -- Virtual --
  0.174   0.144   0.309   1.107   1.206   1.808   1.724   2.197
  2.816
 --------------------------------------------------------------
 
          Ground-State Mulliken Net Atomic Charges

     Atom                 Charge (a.u.)
  ----------------------------------------
      1 O                    -0.234629
      2 H                     0.120876
      3 H                     0.113753
  ----------------------------------------
  Sum of atomic charges =     0.000000

 -----------------------------------------------------------------
                    Cartesian Multipole Moments
 -----------------------------------------------------------------
    Charge (ESU x 10^10)
                 0.0000
    Dipole Moment (Debye)
         X      -0.0000      Y       0.0015      Z      -0.0513
       Tot       0.0513
    Quadrupole Moments (Debye-Ang)
        XX      -6.6735     XY       0.0000     YY      -7.7003
        XZ       0.0000     YZ      -0.0001     ZZ      -6.0604
    Octopole Moments (Debye-Ang^2)
       XXX      -0.0000    XXY      -0.0009    XYY      -0.0000
       YYY      -0.0020    XXZ      -0.0150    XYZ      -0.0000
       YYZ      -0.0140    XZZ       0.0000    YZZ       0.0004
       ZZZ      -0.1543
    Hexadecapole Moments (Debye-Ang^3)
      XXXX      -4.5706   XXXY       0.0000   XXYY      -1.6767
      XYYY       0.0000   YYYY      -5.4895   XXXZ       0.0000
      XXYZ      -0.0000   XYYZ       0.0000   YYYZ      -0.0001
      XXZZ      -5.1452   XYZZ       0.0000   YYZZ      -5.2984
      XZZZ       0.0000   YZZZ      -0.0002   ZZZZ     -24.1390
 -----------------------------------------------------------------
 Calculating analytic gradient of the SCF energy
 Gradient of SCF Energy
            1           2           3
    1  -0.0000000   0.0000000   0.0000000
    2  -0.0000505   0.0000269   0.0000236
    3   0.0035670  -0.0127423   0.0091753
 Max gradient component =       1.274E-02
 RMS gradient           =       5.367E-03
 Gradient time:  CPU 0.22 s  wall 0.06 s
 ----------------------------------------------------------------
             Standard Nuclear Orientation (Angstroms)
    I     Atom           X                Y                Z
 ----------------------------------------------------------------
    1      O       0.0000000000    -0.0002298572    -0.0000000000
    2      H       0.0010000000     0.0009194289    -1.2568516685
    3      H      -0.0000000000     0.0009194289     1.2568516685
 ----------------------------------------------------------------
 Nuclear Repulsion Energy =     6.9470561215 hartrees
 There are        6 alpha and        4 beta electrons

                       Distance Matrix (Angstroms)
             O (  1)   H (  2)
   H (  2)  1.256853
   H (  3)  1.256852  2.513704
 
 Requested basis set is 3-21G
 There are 7 shells and 13 basis functions
 A cutoff of  1.0D-12 yielded     28 shell pairs
 There are       103 function pairs
 Smallest overlap matrix eigenvalue = 1.61E-01
 Guess MOs from SCF MO coefficient file
 Reading MOs from coefficient file
 Reading MOs from coefficient file
 A restricted Hartree-Fock SCF calculation will be
 performed using Geometric Direct Minimization
 SCF converges when RMS gradient is below 1.0E-08
 using 4 threads for integral computing
 -------------------------------------------------------
 OpenMP Integral computing Module                
 Release: version 1.0, May 2013, Q-Chem Inc. Pittsburgh 
 -------------------------------------------------------
TIMEINFO->: J/JK contribution 0.08 sec.
 ---------------------------------------
  Cycle       Energy        RMS Gradient
 ---------------------------------------
    1     -75.3907168837      1.25E-03 Normal BFGS step
TIMEINFO->: J/JK contribution 0.07 sec.
    2     -75.3907238570      8.55E-04 Normal BFGS step
TIMEINFO->: J/JK contribution 0.07 sec.
    3     -75.3907252925      5.59E-04 Normal BFGS step
TIMEINFO->: J/JK contribution 0.07 sec.
    4     -75.3907262021      3.09E-04 Normal BFGS step
TIMEINFO->: J/JK contribution 0.07 sec.
    5     -75.3907264349      9.40E-05 Normal BFGS step
TIMEINFO->: J/JK contribution 0.07 sec.
    6     -75.3907264517      2.83E-05 Normal BFGS step
TIMEINFO->: J/JK contribution 0.07 sec.
    7     -75.3907264528      1.24E-05 Normal BFGS step
TIMEINFO->: J/JK contribution 0.06 sec.
    8     -75.3907264530      4.04E-06 Normal BFGS step
TIMEINFO->: J/JK contribution 0.07 sec.
    9     -75.3907264531      1.12E-06 Normal BFGS step
TIMEINFO->: J/JK contribution 0.07 sec.
   10     -75.3907264531      2.10E-07 Normal BFGS step
TIMEINFO->: J/JK contribution 0.06 sec.
   11     -75.3907264531      1.72E-07 Normal BFGS step
TIMEINFO->: J/JK contribution 0.06 sec.
   12     -75.3907264531      1.72E-07 Normal BFGS step
TIMEINFO->: J/JK contribution 0.07 sec.
   13     -75.3907264531      1.72E-07 Normal BFGS step
TIMEINFO->: J/JK contribution 0.06 sec.
   14     -75.3907264531      3.46E-07 Normal BFGS step
TIMEINFO->: J/JK contribution 0.06 sec.
   15     -75.3907264531      6.84E-07 Normal BFGS step
TIMEINFO->: J/JK contribution 0.07 sec.
   16     -75.3907264531      1.19E-06 Normal BFGS step
TIMEINFO->: J/JK contribution 0.07 sec.
   17     -75.3907264531      2.04E-06 Normal BFGS step
TIMEINFO->: J/JK contribution 0.07 sec.
   18     -75.3907264531      3.38E-06 Normal BFGS step
TIMEINFO->: J/JK contribution 0.07 sec.
   19     -75.3907264532      5.56E-06 Normal BFGS step
TIMEINFO->: J/JK contribution 0.06 sec.
   20     -75.3907264533      9.05E-06 Normal BFGS step
TIMEINFO->: J/JK contribution 0.07 sec.
   21     -75.3907264538      1.47E-05 Normal BFGS step
TIMEINFO->: J/JK contribution 0.07 sec.
   22     -75.3907264550      2.38E-05 Normal BFGS step
TIMEINFO->: J/JK contribution 0.07 sec.
   23     -75.3907264562      4.91E-05 Normal BFGS step
TIMEINFO->: J/JK contribution 0.06 sec.
   24     -75.3907264588      3.06E-05 Normal BFGS step
TIMEINFO->: J/JK contribution 0.07 sec.
   25     -75.3907264643      4.28E-05 Normal BFGS step
TIMEINFO->: J/JK contribution 0.07 sec.
   26     -75.3907264652      1.15E-05 Normal BFGS step
TIMEINFO->: J/JK contribution 0.09 sec.
   27     -75.3907264664      2.68E-05 Normal BFGS step
TIMEINFO->: J/JK contribution 0.06 sec.
   28     -75.3907264669      6.95E-05 Normal BFGS step
TIMEINFO->: J/JK contribution 0.07 sec.
   29     -75.3907264690      2.35E-05 Normal BFGS step
TIMEINFO->: J/JK contribution 0.07 sec.
   30     -75.3907264705      1.15E-05 Normal BFGS step
TIMEINFO->: J/JK contribution 0.07 sec.
   31     -75.3907264725      5.05E-05 Normal BFGS step
TIMEINFO->: J/JK contribution 0.07 sec.
   32     -75.3907264741      4.84E-06 Normal BFGS step
TIMEINFO->: J/JK contribution 0.07 sec.
   33     -75.3907264756      1.08E-05 Normal BFGS step
TIMEINFO->: J/JK contribution 0.08 sec.
   34     -75.3907264494      2.99E-04 Line search: overstep
TIMEINFO->: J/JK contribution 0.06 sec.
   35     -75.3907264762      1.57E-05 Normal BFGS step
TIMEINFO->: J/JK contribution 0.06 sec.
   36     -75.3907264744      1.31E-04 Line search: overstep
TIMEINFO->: J/JK contribution 0.06 sec.
   37     -75.3907264772      2.57E-05 Normal BFGS step
TIMEINFO->: J/JK contribution 0.07 sec.
   38     -75.3907264783      3.94E-05 Normal BFGS step
TIMEINFO->: J/JK contribution 0.07 sec.
   39     -75.3907264798      1.42E-05 Normal BFGS step
TIMEINFO->: J/JK contribution 0.06 sec.
   40     -75.3907264811      2.88E-05 Normal BFGS step
TIMEINFO->: J/JK contribution 0.06 sec.
   41     -75.3907264822      8.69E-06 Normal BFGS step
TIMEINFO->: J/JK contribution 0.06 sec.
   GDM::WARNING energy changes are now smaller than effective accuracy.
   GDM::        calculation will continue, but THRESH should be increased
   GDM::        or SCF_CONVERGENCE decreased.
   GDM::        effective_thresh =   8.954893597479252E-010
   42     -75.3907264821      4.46E-05 Normal BFGS step
TIMEINFO->: J/JK contribution 0.06 sec.
   43     -75.3907264832      2.93E-06 Normal BFGS step
TIMEINFO->: J/JK contribution 0.06 sec.
   44     -75.3907264836      1.97E-06 Normal BFGS step
TIMEINFO->: J/JK contribution 0.06 sec.
[...]
 ----------------------------------------------------------------
             Standard Nuclear Orientation (Angstroms)
    I     Atom           X                Y                Z
 ----------------------------------------------------------------
    1      O       0.0000000000    -0.0002298572    -0.0000000000
    2      H      -0.0000000000     0.0009194289    -1.2568516685
    3      H      -0.0000000000     0.0009194289     1.2558516685
 ----------------------------------------------------------------
 Nuclear Repulsion Energy =     6.9498230436 hartrees
 There are        6 alpha and        4 beta electrons

                       Distance Matrix (Angstroms)
             O (  1)   H (  2)
   H (  2)  1.256852
   H (  3)  1.255852  2.512703
 
 Requested basis set is 3-21G
 There are 7 shells and 13 basis functions
 A cutoff of  1.0D-12 yielded     28 shell pairs
 There are       103 function pairs
 Smallest overlap matrix eigenvalue = 1.61E-01
 Guess MOs from SCF MO coefficient file
 Reading MOs from coefficient file
 Reading MOs from coefficient file
 A restricted Hartree-Fock SCF calculation will be
 performed using Geometric Direct Minimization
 SCF converges when RMS gradient is below 1.0E-08
 using 4 threads for integral computing
 -------------------------------------------------------
 OpenMP Integral computing Module                
 Release: version 1.0, May 2013, Q-Chem Inc. Pittsburgh 
 -------------------------------------------------------
TIMEINFO->: J/JK contribution 0.04 sec.
 ---------------------------------------
  Cycle       Energy        RMS Gradient
 ---------------------------------------
    1     -75.3913051202      1.25E-03 Normal BFGS step
TIMEINFO->: J/JK contribution 0.07 sec.
    2     -75.3907453113      8.55E-04 Normal BFGS step
TIMEINFO->: J/JK contribution 0.07 sec.
    3     -75.3907465869      5.02E-04 Normal BFGS step
TIMEINFO->: J/JK contribution 0.06 sec.
    4     -75.3907475597      2.87E-04 Normal BFGS step
TIMEINFO->: J/JK contribution 0.06 sec.
    5     -75.3907478854      1.18E-04 Normal BFGS step
TIMEINFO->: J/JK contribution 0.07 sec.
    6     -75.3907479107      3.11E-05 Normal BFGS step
TIMEINFO->: J/JK contribution 0.07 sec.
    7     -75.3907479123      8.78E-06 Normal BFGS step
TIMEINFO->: J/JK contribution 0.07 sec.
    8     -75.3907479124      1.03E-06 Normal BFGS step
TIMEINFO->: J/JK contribution 0.06 sec.
    9     -75.3907479124      3.26E-07 Normal BFGS step
TIMEINFO->: J/JK contribution 0.06 sec.
   10     -75.3907479124      1.49E-08 Normal BFGS step
TIMEINFO->: J/JK contribution 0.07 sec.
   GDM::WARNING energy changes are now smaller than effective accuracy.
   GDM::        calculation will continue, but THRESH should be increased
   GDM::        or SCF_CONVERGENCE decreased.
   GDM::        effective_thresh =   7.733366724771429E-011
   11     -75.3907479124      3.25E-09 Convergence criterion met
 ---------------------------------------
 SCF time:  CPU 0.96 s  wall 1.13 s
 SCF   energy in the final basis set = -75.39074791
 Total energy in the final basis set = -75.39074791
 
 --------------------------------------------------------------
 
                    Orbital Energies (a.u.)
 --------------------------------------------------------------
 
 Alpha MOs
 -- Occupied --
-20.577  -1.375  -0.716  -0.579  -0.669  -0.272
 -- Virtual --
  0.170   1.031   1.117   1.620   1.692   2.155   2.729
 
 Beta MOs
 -- Occupied --
-20.531  -1.182  -0.606  -0.522
 -- Virtual --
  0.174   0.145   0.309   1.107   1.206   1.808   1.724   2.197
  2.816
 --------------------------------------------------------------
 
          Ground-State Mulliken Net Atomic Charges

     Atom                 Charge (a.u.)
  ----------------------------------------
      1 O                    -0.234723
      2 H                     0.115582
      3 H                     0.119141
  ----------------------------------------
  Sum of atomic charges =     0.000000

 -----------------------------------------------------------------
                    Cartesian Multipole Moments
 -----------------------------------------------------------------
    Charge (ESU x 10^10)
                 0.0000
    Dipole Moment (Debye)
         X      -0.0000      Y       0.0015      Z       0.0256
       Tot       0.0257
    Quadrupole Moments (Debye-Ang)
        XX      -6.6732     XY       0.0000     YY      -7.7001
        XZ      -0.0000     YZ       0.0000     ZZ      -6.0629
    Octopole Moments (Debye-Ang^2)
       XXX      -0.0000    XXY      -0.0009    XYY      -0.0000
       YYY      -0.0020    XXZ       0.0108    XYZ       0.0000
       YYZ       0.0108    XZZ       0.0000    YZZ       0.0004
       ZZZ       0.0861
    Hexadecapole Moments (Debye-Ang^3)
      XXXX      -4.5705   XXXY       0.0000   XXYY      -1.6767
      XYYY       0.0000   YYYY      -5.4894   XXXZ      -0.0000
      XXYZ       0.0000   XYYZ      -0.0000   YYYZ       0.0000
      XXZZ      -5.1428   XYZZ       0.0000   YYZZ      -5.2959
      XZZZ      -0.0000   YZZZ       0.0001   ZZZZ     -24.1320
 -----------------------------------------------------------------
 Calculating analytic gradient of the SCF energy
 Gradient of SCF Energy
            1           2           3
    1  -0.0000000   0.0000000   0.0000000
    2  -0.0000502   0.0000243   0.0000259
    3  -0.0017799  -0.0099172   0.0116971
 Max gradient component =       1.170E-02
 RMS gradient           =       5.146E-03
 Gradient time:  CPU 0.22 s  wall 0.06 s
Dipole drv :
gprntSymmMtrx error report: 
 Final Hessian.
            1           2           3           4           5           6
    1   0.0232393   0.0013497   0.0000000  -0.0116196  -0.0000000   0.0000000
    2   0.0013497   0.0208907   0.0000000  -0.0006749  -0.0110324   0.0001437
    3   0.0000000   0.0000000  -1.8875913  -0.0000002  -0.0008741   0.9440525
    4  -0.0116196  -0.0006749  -0.0000002   0.0081175   0.0000001   0.0000000
    5  -0.0000000  -0.0110324  -0.0008741   0.0000001   0.0081172   0.0003654
    6   0.0000000   0.0001437   0.9440525   0.0000000   0.0003654  -0.3901772
    7  -0.0116197  -0.0006748  -0.0000028   0.0035020  -0.0000001   0.0000015
    8  -0.0000000  -0.0110325   0.0008743  -0.0000001   0.0035024  -0.0005092
    9   0.0000000  -0.0001441   0.9440525   0.0000000   0.0005091  -0.5541320
            7           8           9
    1  -0.0116197  -0.0000000   0.0000000
    2  -0.0006748  -0.0110325  -0.0001441
    3  -0.0000028   0.0008743   0.9440525
    4   0.0035020  -0.0000001   0.0000000
    5  -0.0000001   0.0035024   0.0005091
    6   0.0000015  -0.0005092  -0.5541320
    7   0.0081177   0.0000001   0.0000000
    8   0.0000001   0.0081173  -0.0003654
    9   0.0000000  -0.0003654  -0.3901772
 ----------------------------------------------------------------
             Standard Nuclear Orientation (Angstroms)
    I     Atom           X                Y                Z
 ----------------------------------------------------------------
    1      O       0.0000000000    -0.0002298572    -0.0000000000
    2      H      -0.0000000000     0.0009194289    -1.2568516685
    3      H      -0.0000000000     0.0009194289     1.2568516685
 ----------------------------------------------------------------
 Nuclear Repulsion Energy =     6.9470572043 hartrees
 There are        6 alpha and        4 beta electrons
 old dipole drv.
            1           2           3           4           5           6
    1  -0.2796796   0.0039823  -0.0000000   0.1398387   0.0000003  -0.0000000
    2   0.0000002  -0.2831429   0.0000000  -0.0000001   0.1398382   0.0000772
    3   0.0000038  -0.0000035  10.6815328   0.0000009   0.0050174  -5.3433020
            7           8           9
    1   0.1398400  -0.0000003   0.0000000
    2  -0.0000004   0.1398384  -0.0000772
    3   0.0000273  -0.0050175  -5.3433020
 New transposed dipole drv.
            1           2           3
    1  -0.2796796   0.0000002   0.0000038
    2   0.0039823  -0.2831429  -0.0000035
    3  -0.0000000   0.0000000  10.6815328
    4   0.1398387  -0.0000001   0.0000009
    5   0.0000003   0.1398382   0.0050174
    6  -0.0000000   0.0000772  -5.3433020
    7   0.1398400  -0.0000004   0.0000273
    8  -0.0000003   0.1398384  -0.0050175
    9   0.0000000  -0.0000772  -5.3433020
FINAL TENSOR RESULT:
Order 2, Length 9
    Atom      X          Y          Z
     1 Order 1, Length 9
    Atom      X          Y          Z
     1    2.323928934516215e-02   1.349737274600711e-03   0.000000000000000e+00
     2   -1.161960642601988e-02  -2.707938456632269e-08   0.000000000000000e+00
     3   -1.161972023030271e-02  -1.504768484663204e-09   0.000000000000000e+00

Order 1, Length 9
    Atom      X          Y          Z
     1    1.349737274600711e-03   2.089074741622757e-02   0.000000000000000e+00
     2   -6.748857440657619e-04  -1.103243843379162e-02   1.436973552852414e-04
     3   -6.747940028617573e-04  -1.103253174711925e-02  -1.441257693379051e-04

Order 1, Length 9
    Atom      X          Y          Z
     1    0.000000000000000e+00   0.000000000000000e+00  -1.887591344380014e+00
     2   -1.957887785893350e-07  -8.741498721010837e-04   9.440524618497281e-01
     3   -2.836218277225114e-06   8.742696052355067e-04   9.440524687936815e-01


     2 Order 1, Length 9
    Atom      X          Y          Z
     1   -1.161960642601988e-02  -6.748857440657619e-04  -1.957887785893350e-07
     2    8.117543604306365e-03   1.162090813684527e-07   0.000000000000000e+00
     3    3.502039662647410e-03  -1.038319077723289e-07   0.000000000000000e+00

Order 1, Length 9
    Atom      X          Y          Z
     1   -2.707938456632269e-08  -1.103243843379162e-02  -8.741498721010837e-04
     2    1.162090813684527e-07   8.117201589683763e-03   3.653563897634437e-04
     3   -1.317547728462994e-07   3.502359088642407e-03   5.091416254070673e-04

Order 1, Length 9
    Atom      X          Y          Z
     1    0.000000000000000e+00   1.436973552852414e-04   9.440524618497281e-01
     2    0.000000000000000e+00   3.653563897634437e-04  -3.901772293901335e-01
     3    1.519020460407058e-06  -5.091513347388768e-04  -5.541320299636725e-01


     3 Order 1, Length 9
    Atom      X          Y          Z
     1   -1.161972023030271e-02  -6.747940028617573e-04  -2.836218277225114e-06
     2    3.502039662647410e-03  -1.317547728462994e-07   1.519020460407058e-06
     3    8.117741037880093e-03   9.043407857208757e-08   0.000000000000000e+00

Order 1, Length 9
    Atom      X          Y          Z
     1   -1.504768484663204e-09  -1.103253174711925e-02   8.742696052355067e-04
     2   -1.038319077723289e-07   3.502359088642407e-03  -5.091513347388768e-04
     3    9.043407857208757e-08   8.117273178626911e-03  -3.653635962669541e-04

Order 1, Length 9
    Atom      X          Y          Z
     1    0.000000000000000e+00  -1.441257693379051e-04   9.440524687936815e-01
     2    0.000000000000000e+00   5.091416254070673e-04  -5.541320299636725e-01
     3    0.000000000000000e+00  -3.653635962669541e-04  -3.901772275895490e-01




 # Finishing finite difference calculation for IDERIV #
 ######################################################
 ######################################################
 Requested basis set is 3-21G
 There are 7 shells and 13 basis functions

 Mass-Weighted Hessian Matrix:


     0.001453    0.000084    0.000000   -0.002894   -0.000000    0.000000
     0.000084    0.001306    0.000000   -0.000168   -0.002748    0.000036
     0.000000    0.000000   -0.118012   -0.000000   -0.000218    0.235132
    -0.002894   -0.000168   -0.000000    0.008054    0.000000    0.000000
    -0.000000   -0.002748   -0.000218    0.000000    0.008054    0.000363
     0.000000    0.000036    0.235132    0.000000    0.000363   -0.387146
    -0.002894   -0.000168   -0.000001    0.003475   -0.000000    0.000002
    -0.000000   -0.002748    0.000218   -0.000000    0.003475   -0.000505
     0.000000   -0.000036    0.235132    0.000000    0.000505   -0.549827


    -0.002894   -0.000000    0.000000
    -0.000168   -0.002748   -0.000036
    -0.000001    0.000218    0.235132
     0.003475   -0.000000    0.000000
    -0.000000    0.003475    0.000505
     0.000002   -0.000505   -0.549827
     0.008055    0.000000    0.000000
     0.000000    0.008054   -0.000363
     0.000000   -0.000363   -0.387146

 Vectors for Translations and Rotations


     0.942382    0.000000    0.000000   -0.334538    0.000000    0.000000
     0.000000    0.942382    0.000000   -0.000000   -0.000000   -0.000000
     0.000000    0.000000    0.942382   -0.000000    0.000000    0.000288
     0.236554    0.000000    0.000000    0.666365    0.707107    0.000000
     0.000000    0.236554    0.000000    0.000000    0.000000   -0.707107
     0.000000    0.000000    0.236554    0.000000   -0.000000   -0.000574
     0.236554    0.000000    0.000000    0.666365   -0.707107    0.000000
     0.000000    0.236554    0.000000    0.000000    0.000000    0.707107
     0.000000    0.000000    0.236554    0.000000   -0.000000   -0.000574

 The Projection Matrix


     0.000000   -0.000000   -0.000000   -0.000000    0.000000    0.000000
    -0.000000    0.111915    0.000000    0.000000   -0.222924   -0.000000
    -0.000000    0.000000    0.111915   -0.000000    0.000204   -0.222924
    -0.000000    0.000000   -0.000000    0.000000   -0.000000    0.000000
     0.000000   -0.222924    0.000204   -0.000000    0.444043   -0.000406
     0.000000   -0.000000   -0.222924    0.000000   -0.000406    0.944042
     0.000000    0.000000    0.000000    0.000000   -0.000000   -0.000000
     0.000000   -0.222924   -0.000204   -0.000000    0.444042    0.000406
     0.000000   -0.000000   -0.222924    0.000000   -0.000406   -0.055958


     0.000000    0.000000    0.000000
     0.000000   -0.222924   -0.000000
     0.000000   -0.000204   -0.222924
     0.000000   -0.000000    0.000000
    -0.000000    0.444042   -0.000406
    -0.000000    0.000406   -0.055958
    -0.000000   -0.000000   -0.000000
    -0.000000    0.444043    0.000406
    -0.000000    0.000406    0.944042

 Translations and Rotations Projected Out of Hessian

 Projected Mass-Weighted Hessian Matrix:


     0.000000   -0.000000   -0.000000   -0.000000    0.000000   -0.000000
    -0.000000    0.001436    0.000000    0.000000   -0.002861    0.000036
    -0.000000    0.000000   -0.118069    0.000000   -0.000215    0.235182
    -0.000000    0.000000    0.000000    0.000000   -0.000000   -0.000000
     0.000000   -0.002861   -0.000215   -0.000000    0.005699    0.000357
    -0.000000    0.000036    0.235182   -0.000000    0.000357   -0.387117
     0.000000    0.000000   -0.000000   -0.000000   -0.000000    0.000000
     0.000000   -0.002861    0.000215   -0.000000    0.005700   -0.000500
     0.000000   -0.000036    0.235182   -0.000000    0.000500   -0.549798


     0.000000    0.000000    0.000000
     0.000000   -0.002861   -0.000036
    -0.000000    0.000215    0.235182
    -0.000000   -0.000000   -0.000000
    -0.000000    0.005700    0.000500
     0.000000   -0.000500   -0.549798
     0.000000   -0.000000    0.000000
    -0.000000    0.005699   -0.000357
     0.000000   -0.000357   -0.387117

 Eigenvectors of Proj. Mass-Weighted Hessian Matrix:


    -0.000000   -0.000000   -0.000000    0.000000    0.376987    0.926219
     0.000000    0.256579    0.226209    0.864186    0.000000   -0.000000
    -0.334537   -0.532816    0.123914   -0.012535   -0.000000    0.000000
     0.000000    0.000000    0.000000   -0.000000    0.926219   -0.376987
    -0.000609   -0.485247    0.012613    0.458531    0.000000   -0.000000
     0.666365   -0.134248    0.031064   -0.002926   -0.000000    0.000000
    -0.000000   -0.041203    0.959789   -0.205299   -0.000000    0.000000
     0.000609    0.614058    0.100952   -0.024681   -0.000000    0.000000
     0.666365   -0.134248    0.031064   -0.002926   -0.000000    0.000000


    -0.000000    0.000000    0.000000
     0.155766   -0.334537   -0.000338
     0.767255   -0.000000   -0.000000
     0.000000   -0.000000   -0.000000
    -0.331788    0.666365    0.000673
     0.192255    0.000714   -0.707106
    -0.186976   -0.000000    0.000000
     0.409987    0.666365    0.000673
     0.192255   -0.000714    0.707106

 Vibrational Frequencies in atomic units
    -1.0549855634   -0.0000000000   -0.0000000000   -0.0000000000   -0.0000000000    0.0000000000
     0.0000000000    0.0128352561    0.1626811622
 **********************************************************************
 **                                                                  **
 **                       VIBRATIONAL ANALYSIS                       **
 **                       --------------------                       **
 **                                                                  **
 **        VIBRATIONAL FREQUENCIES (CM**-1) AND NORMAL MODES         **
 **     FORCE CONSTANTS (mDYN/ANGSTROM) AND REDUCED MASSES (AMU)     **
 **                  INFRARED INTENSITIES (KM/MOL)                   **
 **                                                                  **
 **********************************************************************
 

 Mode:                 1                      2                      3
 Frequency:     -5279.94                 582.38                2073.36
 Force Cnst:     18.4929                 0.2250                 2.5526
 Red. Mass:       1.1259                 1.1259                 1.0078
 IR Active:          YES                    YES                    YES
 IR Intens:    62188.959                 42.717                  0.000
 Raman Active:       YES                    YES                    YES
               X      Y      Z        X      Y      Z        X      Y      Z
 O         -0.000  0.000 -0.089    0.000 -0.089 -0.000    0.000 -0.000 -0.000
 H          0.000 -0.001  0.704   -0.000  0.704  0.001   -0.000  0.001 -0.707
 H         -0.000  0.001  0.704   -0.000  0.704 -0.001    0.000  0.001  0.707
 TransDip  -0.000 -0.000 -7.987   -0.000  0.209  0.000   -0.000  0.000  0.000

 STANDARD THERMODYNAMIC QUANTITIES AT   298.15 K  AND     1.00 ATM

   This Molecule has  1 Imaginary Frequencies
   Zero point vibrational energy:        3.797 kcal/mol

   Atom    1 Element O  Has Mass   15.99491
   Atom    2 Element H  Has Mass    1.00783
   Atom    3 Element H  Has Mass    1.00783
   Molecular Mass:    18.010570 amu
   Principal axes and moments of inertia in amu*Bohr^2:
                             1           2           3
    Eigenvalues --        0.00001    11.37059    11.37060
          X               0.00000     0.00000     1.00000
          Y              -0.00000     1.00000     0.00000
          Z               1.00000     0.00000     0.00000
   Rotational Symmetry Number is   1
   The Molecule is a Symmetric Top
   Translational Enthalpy:        0.889 kcal/mol
   Rotational Enthalpy:           0.592 kcal/mol
   Vibrational Enthalpy:          3.903 kcal/mol
   gas constant (RT):             0.592 kcal/mol
   Translational Entropy:        34.608  cal/mol.K
   Rotational Entropy:            9.275  cal/mol.K
   Vibrational Entropy:           0.482  cal/mol.K

   Total Enthalpy:                5.977 kcal/mol
   Total Entropy:                44.365  cal/mol.K
Archival summary:
1\1\comet-ln2.sdsc.edu\FREQ\ROHF\3-21G\12(3)\jjakowsk\ThuSep2007:01:332018ThuSep2007:01:332018\0\\#,FREQ,ROHF,3-21G,\\0,3\O\H,1,1.25685\H,1,1.25685,2,179.895\\HF=-75.3907479\\@

 Total job time:  30.91s(wall), 108.40s(cpu) 
 Thu Sep 20 07:01:33 2018

        *************************************************************
        *                                                           *
        *  Thank you very much for using Q-Chem.  Have a nice day.  *
        *                                                           *
        *************************************************************


0 sent ACK to 0 
now end server 0 ... 
cleanup process ... done
