
Running Job 1 of 2 water-opt.inp
qchem water-opt.inp_28774.0 ./qchem28774/ 1
/opt/qchem/bin/mpi/mpirun_qchem -machinefile /opt/qchem/bin/mpi/machines -np 1 /opt/qchem/exe/qcprog.exe water-opt.inp_28774.0 ./qchem28774/

Process 0 of 1 is on comet-ln2.sdsc.edu - thread support 0
initial socket setup ...start
initial socket setup ...done 
now start server 0 ... 
Check license passed

                  Welcome to Q-Chem
     A Quantum Leap Into The Future Of Chemistry


 Q-Chem 5.1, Q-Chem, Inc., Pleasanton, CA (2018)

 Yihan Shao,  Zhengting Gan,  E. Epifanovsky,  A. T. B. Gilbert,  M. Wormit,  
 J. Kussmann,  A. W. Lange,  A. Behn,  Jia Deng,  Xintian Feng,  D. Ghosh,  
 M. Goldey,  P. R. Horn,  L. D. Jacobson,  I. Kaliman,  T. Kus,  A. Landau,  
 Jie Liu,  E. I. Proynov,  R. M. Richard,  R. P. Steele,  E. J. Sundstrom,  
 H. L. Woodcock III,  P. M. Zimmerman,  D. Zuev,  B. Albrecht,  E. Alguire,  
 S. A. Baeppler,  D. Barton,  Z. Benda,  Y. A. Bernard,  E. J. Berquist,  
 K. B. Bravaya,  H. Burton,  D. Casanova,  Chun-Min Chang,  Yunqing Chen,  
 A. Chien,  K. D. Closser,  M. P. Coons,  S. Coriani,  S. Dasgupta,  
 A. L. Dempwolff,  M. Diedenhofen,  Hainam Do,  R. G. Edgar,  Po-Tung Fang,  
 S. Faraji,  S. Fatehi,  Qingguo Feng,  K. D. Fenk,  J. Fosso-Tande,  
 Qinghui Ge,  A. Ghysels,  G. Gidofalvi,  J. Gomes,  J. Gonthier,  A. Gunina,  
 D. Hait,  M. W. D. Hanson-Heine,  P. H. P. Harbach,  A. W. Hauser,  
 J. E. Herr,  E. G. Hohenstein,  Z. C. Holden,  Kerwin Hui,  B. C. Huynh,  
 T.-C. Jagau,  Hyunjun Ji,  B. Kaduk,  K. Khistyaev,  Jaehoon Kim,  
 P. Klunzinger,  K. Koh,  D. Kosenkov,  L. Koulias,  T. Kowalczyk,  
 C. M. Krauter,  A. Kunitsa,  Ka Un Lao,  A. Laurent,  K. V. Lawler,  
 Joonho Lee,  D. Lefrancois,  S. Lehtola,  D. S. Levine,  Yi-Pei Li,  
 You-Sheng Lin,  Fenglai Liu,  E. Livshits,  A. Luenser,  P. Manohar,  
 E. Mansoor,  S. F. Manzer,  Shan-Ping Mao,  Yuezhi Mao,  N. Mardirossian,  
 A. V. Marenich,  T. Markovich,  L. A. Martinez-Martinez,  S. A. Maurer,  
 N. J. Mayhall,  S. C. McKenzie,  J.-M. Mewes,  A. F. Morrison,  
 J. W. Mullinax,  K. Nanda,  T. S. Nguyen-Beck,  R. Olivares-Amaya,  
 J. A. Parkhill,  T. M. Perrine,  F. Plasser,  P. Pokhilko,  S. Prager,  
 A. Prociuk,  E. Ramos,  D. R. Rehn,  F. Rob,  M. Schneider,  N. Sergueev,  
 S. M. Sharada,  S. Sharma,  D. W. Small,  T. Stauch,  T. Stein,  
 Yu-Chuan Su,  A. J. W. Thom,  A. Tkatchenko,  T. Tsuchimochi,  N. M. Tubman,  
 L. Vogt,  M. L. Vidal,  O. Vydrov,  M. A. Watson,  J. Wenzel,  
 M. de Wergifosse,  T. A. Wesolowski,  A. White,  J. Witte,  A. Yamada,  
 Jun Yang,  K. Yao,  S. Yeganeh,  S. R. Yost,  Zhi-Qiang You,  A. Zech,  
 Igor Ying Zhang,  Xing Zhang,  Yan Zhao,  Ying Zhu,  B. R. Brooks,  
 G. K. L. Chan,  C. J. Cramer,  M. S. Gordon,  W. J. Hehre,  A. Klamt,  
 M. W. Schmidt,  C. D. Sherrill,  D. G. Truhlar,  A. Aspuru-Guzik,  R. Baer,  
 A. T. Bell,  N. A. Besley,  Jeng-Da Chai,  A. E. DePrince, III,  
 R. A. DiStasio Jr.,  A. Dreuw,  B. D. Dunietz,  T. R. Furlani,  
 Chao-Ping Hsu,  Yousung Jung,  Jing Kong,  D. S. Lambrecht,  WanZhen Liang,  
 C. Ochsenfeld,  V. A. Rassolov,  L. V. Slipchenko,  J. E. Subotnik,  
 T. Van Voorhis,  J. M. Herbert,  A. I. Krylov,  P. M. W. Gill,  M. Head-Gordon

 Contributors to earlier versions of Q-Chem not listed above: 
 R. D. Adamson,  B. Austin,  J. Baker,  G. J. O. Beran,  K. Brandhorst,  
 S. T. Brown,  E. F. C. Byrd,  A. K. Chakraborty,  C.-L. Cheng,  
 Siu Hung Chien,  D. M. Chipman,  D. L. Crittenden,  H. Dachsel,  
 R. J. Doerksen,  A. D. Dutoi,  L. Fusti-Molnar,  W. A. Goddard III,  
 A. Golubeva-Zadorozhnaya,  S. R. Gwaltney,  G. Hawkins,  A. Heyden,  
 S. Hirata,  G. Kedziora,  F. J. Keil,  C. Kelley,  Jihan Kim,  R. A. King,  
 R. Z. Khaliullin,  P. P. Korambath,  W. Kurlancheek,  A. M. Lee,  M. S. Lee,  
 S. V. Levchenko,  Ching Yeh Lin,  D. Liotard,  R. C. Lochan,  I. Lotan,  
 P. E. Maslen,  N. Nair,  D. P. O'Neill,  D. Neuhauser,  E. Neuscamman,  
 C. M. Oana,  R. Olson,  B. Peters,  R. Peverati,  P. A. Pieniazek,  
 Y. M. Rhee,  J. Ritchie,  M. A. Rohrdanz,  E. Rosta,  N. J. Russ,  
 H. F. Schaefer III,  N. E. Schultz,  N. Shenvi,  A. C. Simmonett,  A. Sodt,  
 D. Stuck,  K. S. Thanthiriwatte,  V. Vanovschi,  Tao Wang,  A. Warshel,  
 C. F. Williams,  Q. Wu,  X. Xu,  W. Zhang

 Please cite Q-Chem as follows:
 Y. Shao et al., Mol. Phys. 113, 184-215 (2015)
 DOI: 10.1080/00268976.2014.952696

 Q-Chem 5.1.1 for Intel X86 EM64T Linux

 Parts of Q-Chem use Armadillo 8.300.2 (Tropical Shenanigans).
 http://arma.sourceforge.net/

 Q-Chem begins on Thu Sep 20 06:45:20 2018  

Host: 
0

     Scratch files written to ./qchem28774//
 Aug318 |scratch|qcdevops|jenkins|workspace|build_RNUM    
 Parallel job on  1  processors
Processing $rem in /opt/qchem/config/preferences.
 MEM_TOTAL  4000 
Input Ideriv = 2
Curr. Ideriv = -1
Max.  Ideriv = 2

Checking the input file for inconsistencies... 	...done.

--------------------------------------------------------------
User input:
--------------------------------------------------------------

$molecule
0  3
O  0.0   0.0 0.0
H  1.0   1.0 0.0
H -1.0   1.0 0.0
$end

$rem
BASIS    3-21G
JOBTYPE  opt
METHOD   hf
$end

--------------------------------------------------------------
 ----------------------------------------------------------------
             Standard Nuclear Orientation (Angstroms)
    I     Atom           X                Y                Z
 ----------------------------------------------------------------
    1      O       0.0000000000     0.0000000000     0.2000000000
    2      H      -1.0000000000    -0.0000000000    -0.8000000000
    3      H       1.0000000000     0.0000000000    -0.8000000000
 ----------------------------------------------------------------
 Molecular Point Group                 C2v   NOp =  4
 Largest Abelian Subgroup              C2v   NOp =  4
 Nuclear Repulsion Energy =     6.2515453127 hartrees
 There are        6 alpha and        4 beta electrons
 Requested basis set is 3-21G
 There are 7 shells and 13 basis functions

 Total QAlloc Memory Limit   4000 MB
 Mega-Array Size       188 MB
 MEM_STATIC part       192 MB
 A cutoff of  1.0D-11 yielded     28 shell pairs
 There are       103 function pairs
 
 -------------------------------------------------------
 OpenMP Integral Computing Module                       
 Release: version 1.0, May 2013, Q-Chem Inc. Pittsburgh 
 -------------------------------------------------------
 Integral Job Info:
 Integral job number is                      11
 Integral operator is                         1
 short-range coefficients                     0
 long-range coefficients              100000000
 Omega coefficients                           0
 if combine SR and LR in K                    0
 Integral screening is                        0
 Integral computing path is                   2
 max size of driver memory is            800000
 size of driver memory is                 45569
 size of scratch memory is               800000
 max col of scratch BK array                289
 max len of scratch array in speh3           22
 max len of scratch index in speh4            8
 max int batch size is                      520
 min int batch size is                       52
 fixed nKL is                               143
 max L of basis functions is                  1
 order of int derivative is                   0
 number of shells is                          7
 number of basis is                          13
 number of cartesian basis is                13
 number of contracted shell pairs            28
 number of primitive shell pairs             77
 maxK2 (contraction) of shell pair            9
 max number of K2 of shell pair               1
 max number of CS2 of shell pair              5
 max number of PS2 of shell pair             15
 mem total for path MDJ                  504126
 -------------------------------------------------------
 Smallest overlap matrix eigenvalue = 1.81E-01

 Scale SEOQF with 1.000000e+00/1.000000e+00/1.000000e+00

 Standard Electronic Orientation quadrupole field applied
 Nucleus-field energy     =    -0.0000000010 hartrees
 Guess from superposition of atomic densities
 Warning:  Energy on first SCF cycle will be non-variational
 SAD guess density has 10.000000 electrons

 -----------------------------------------------------------------------
  General SCF calculation program by
  Eric Jon Sundstrom, Paul Horn, Yuezhi Mao, Dmitri Zuev, Alec White,
  David Stuck, Shaama M.S., Shane Yost, Joonho Lee, David Small,
  Daniel Levine, Susi Lehtola, Hugh Burton, Evgeny Epifanovsky
 -----------------------------------------------------------------------
 Hartree-Fock
 using 4 threads for integral computing
 -------------------------------------------------------
 OpenMP Integral computing Module                
 Release: version 1.0, May 2013, Q-Chem Inc. Pittsburgh 
 -------------------------------------------------------
 A unrestricted SCF calculation will be
 performed using DIIS
 SCF converges when DIIS error is below 1.0e-08
 ---------------------------------------
  Cycle       Energy         DIIS error
 ---------------------------------------
    1     -74.8425287364      4.49e-02  
    2     -75.3420432689      9.74e-03  
    3     -75.3515147206      3.87e-03  
    4     -75.3541625232      2.05e-03  
    5     -75.3548544672      9.16e-04  
    6     -75.3552927426      8.18e-04  
    7     -75.3565991128      4.79e-04  
    8     -75.3570354898      2.20e-04  
    9     -75.3570933850      6.57e-05  
   10     -75.3570975837      4.10e-05  
   11     -75.3570992747      3.93e-06  
   12     -75.3570992849      9.04e-07  
   13     -75.3570992856      7.98e-08  
   14     -75.3570992857      9.34e-09  Convergence criterion met
 ---------------------------------------
 SCF time:   CPU 0.71s  wall 0.00s 
<S^2> =          2.120494521
 SCF   energy in the final basis set =      -75.3570992857
 Total energy in the final basis set =      -75.3570992857
 
 --------------------------------------------------------------
             Orbital Energies (a.u.) and Symmetries
 --------------------------------------------------------------
 
 Alpha MOs, Unrestricted
 -- Occupied --                  
-20.591  -1.354  -0.670  -0.663  -0.560  -0.304
  1 A1    2 A1    1 B2    3 A1    1 B1    4 A1                                 
 -- Virtual --                   
  0.091   1.055   1.118   1.618   1.800   1.879   2.662
  2 B1    5 A1    3 B1    2 B2    6 A1    4 B1    7 A1                         
 
 Beta MOs, Unrestricted
 -- Occupied --                  
-20.549  -1.182  -0.577  -0.528
  1 A1    2 A1    1 B1    3 A1                                                 
 -- Virtual --                   
  0.136   0.169   0.189   1.162   1.203   1.831   1.856   1.873
  1 B2    4 A1    2 B1    5 A1    3 B1    2 B2    4 B1    6 A1                 
  2.752
  7 A1                                                                         
 --------------------------------------------------------------
 
          Ground-State Mulliken Net Atomic Charges

     Atom                 Charge (a.u.)    Spin (a.u.)
  --------------------------------------------------------
      1 O                    -0.120696       0.854452
      2 H                     0.060348       0.572774
      3 H                     0.060348       0.572774
  --------------------------------------------------------
  Sum of atomic charges =    -0.000000
  Sum of spin   charges =     2.000000

 -----------------------------------------------------------------
                    Cartesian Multipole Moments
 -----------------------------------------------------------------
    Charge (ESU x 10^10)
                 0.0000
    Dipole Moment (Debye)
         X      -0.0000      Y       0.0000      Z      -0.5964
       Tot       0.5964
    Quadrupole Moments (Debye-Ang)
        XX      -6.9088     XY      -0.0000     YY      -6.8832
        XZ       0.0000     YZ       0.0000     ZZ      -7.6051
    Octopole Moments (Debye-Ang^2)
       XXX      -0.0000    XXY       0.0000    XYY      -0.0000
       YYY       0.0000    XXZ       0.4014    XYZ      -0.0000
       YYZ       1.0485    XZZ      -0.0000    YZZ       0.0000
       ZZZ       2.4980
    Hexadecapole Moments (Debye-Ang^3)
      XXXX     -19.0341   XXXY      -0.0000   XXYY      -4.0986
      XYYY      -0.0000   YYYY      -4.8563   XXXZ       0.0000
      XXYZ       0.0000   XYYZ       0.0000   YYYZ      -0.0000
      XXZZ      -5.4779   XYZZ      -0.0000   YYZZ      -3.5406
      XZZZ       0.0000   YZZZ      -0.0000   ZZZZ     -16.4978
 -----------------------------------------------------------------
 Calculating analytic gradient of the SCF energy
 Gradient of SCF Energy
            1           2           3
    1   0.0000000  -0.0162712   0.0162712
    2   0.0000000  -0.0000000   0.0000000
    3   0.0543973  -0.0271987  -0.0271987
 Max gradient component =       5.440E-02
 RMS gradient           =       2.349E-02
 Gradient time:  CPU 0.23 s  wall 0.07 s
 Geometry Optimization Parameters
   NAtoms,    NIC,     NZ,  NCons,   NDum,   NFix, NCnnct, MaxDiis
        3       9       0       0       0       0       0       0


** GEOMETRY OPTIMIZATION IN DELOCALIZED INTERNAL COORDINATES **
   Searching for a Minimum

   Optimization Cycle:   1

                       Coordinates (Angstroms)
     ATOM                X               Y               Z
      1  O         0.0000000000    0.0000000000    0.2000000000
      2  H        -1.0000000000    0.0000000000   -0.8000000000
      3  H         1.0000000000    0.0000000000   -0.8000000000
   Point Group: c2v   Number of degrees of freedom:     2


   Energy is    -75.357099286


 Attempting to Generate Delocalized Internal Coordinates

  2 Hessian modes will be used to form the next step
  Hessian Eigenvalues:
     0.138777    0.160000

 Minimum Search - Taking Simple RFO Step
 Searching for Lamda that Minimizes Along All modes
 Value Taken    Lamda =  -0.01474855
 Calculated Step too Large.  Step scaled by  0.977793
 Step Taken.  Stepsize is  0.300000

                             Maximum     Tolerance    Cnvgd?
         Gradient           0.047740      0.000300      NO
         Displacement       0.299077      0.001200      NO
         Energy change     *********      0.000001      NO


 New Cartesian Coordinates Obtained by Inverse Iteration

 Displacement from previous Coordinates is:  0.205989
 ----------------------------------------------------------------
             Standard Nuclear Orientation (Angstroms)
    I     Atom           X                Y                Z
 ----------------------------------------------------------------
    1      O       0.0000000000     0.0000000000     0.1144600462
    2      H      -0.9787116637     0.0000000000    -0.7572300231
    3      H       0.9787116637     0.0000000000    -0.7572300231
 ----------------------------------------------------------------
 Molecular Point Group                 C2v   NOp =  4
 Largest Abelian Subgroup              C2v   NOp =  4
 Nuclear Repulsion Energy =     6.7305282096 hartrees
 There are        6 alpha and        4 beta electrons
 Applying Cartesian multipole field
    Component          Value
    ---------          -----
     (2,0,0)        1.00000E-10
     (0,2,0)        2.00000E-10
     (0,0,2)       -3.00000E-10
 Nucleus-field energy     =    -0.0000000007 hartrees
 Requested basis set is 3-21G
 There are 7 shells and 13 basis functions
 A cutoff of  1.0D-11 yielded     28 shell pairs
 There are       103 function pairs
 Smallest overlap matrix eigenvalue = 1.69E-01
 Guess MOs from SCF MO coefficient file

 -----------------------------------------------------------------------
  General SCF calculation program by
  Eric Jon Sundstrom, Paul Horn, Yuezhi Mao, Dmitri Zuev, Alec White,
  David Stuck, Shaama M.S., Shane Yost, Joonho Lee, David Small,
  Daniel Levine, Susi Lehtola, Hugh Burton, Evgeny Epifanovsky
 -----------------------------------------------------------------------
 Hartree-Fock
 using 4 threads for integral computing
 -------------------------------------------------------
 OpenMP Integral computing Module                
 Release: version 1.0, May 2013, Q-Chem Inc. Pittsburgh 
 -------------------------------------------------------
 A unrestricted SCF calculation will be
 performed using DIIS
 SCF converges when DIIS error is below 1.0e-08
 ---------------------------------------
  Cycle       Energy         DIIS error
 ---------------------------------------
    1     -75.3668948362      4.70e-03  
    2     -75.3691247422      1.50e-03  
    3     -75.3696077740      8.33e-04  
    4     -75.3698275900      6.29e-04  
    5     -75.3700911871      3.51e-04  
    6     -75.3702008211      1.61e-04  
    7     -75.3702224040      3.29e-05  
    8     -75.3702228621      5.29e-06  
    9     -75.3702228741      9.32e-07  
   10     -75.3702228744      9.95e-08  
   11     -75.3702228744      1.19e-08  
   12     -75.3702228744      1.81e-09  Convergence criterion met
 ---------------------------------------
 SCF time:   CPU 0.52s  wall 0.00s 
<S^2> =          2.037809811
 SCF   energy in the final basis set =      -75.3702228744
 Total energy in the final basis set =      -75.3702228744
 
 --------------------------------------------------------------
             Orbital Energies (a.u.) and Symmetries
 --------------------------------------------------------------
 
 Alpha MOs, Unrestricted
 -- Occupied --                  
-20.602  -1.393  -0.686  -0.675  -0.621  -0.263
  1 A1    2 A1    1 B2    3 A1    1 B1    4 A1                                 
 -- Virtual --                   
  0.116   1.057   1.109   1.604   1.789   1.892   2.712
  2 B1    5 A1    3 B1    2 B2    6 A1    4 B1    7 A1                         
 
 Beta MOs, Unrestricted
 -- Occupied --                  
-20.553  -1.194  -0.594  -0.547
  1 A1    2 A1    1 B1    3 A1                                                 
 -- Virtual --                   
  0.128   0.189   0.221   1.149   1.173   1.824   1.860   1.900
  1 B2    4 A1    2 B1    5 A1    3 B1    2 B2    6 A1    4 B1                 
  2.815
  7 A1                                                                         
 --------------------------------------------------------------
 
          Ground-State Mulliken Net Atomic Charges

     Atom                 Charge (a.u.)    Spin (a.u.)
  --------------------------------------------------------
      1 O                    -0.135006       0.995767
      2 H                     0.067503       0.502117
      3 H                     0.067503       0.502117
  --------------------------------------------------------
  Sum of atomic charges =    -0.000000
  Sum of spin   charges =     2.000000

 -----------------------------------------------------------------
                    Cartesian Multipole Moments
 -----------------------------------------------------------------
    Charge (ESU x 10^10)
                -0.0000
    Dipole Moment (Debye)
         X      -0.0000      Y      -0.0000      Z      -0.5139
       Tot       0.5139
    Quadrupole Moments (Debye-Ang)
        XX      -7.0630     XY       0.0000     YY      -6.8673
        XZ       0.0000     YZ      -0.0000     ZZ      -7.7121
    Octopole Moments (Debye-Ang^2)
       XXX      -0.0000    XXY       0.0000    XYY      -0.0000
       YYY      -0.0000    XXZ       0.9114    XYZ      -0.0000
       YYZ       1.3536    XZZ      -0.0000    YZZ      -0.0000
       ZZZ       3.8061
    Hexadecapole Moments (Debye-Ang^3)
      XXXX     -18.8950   XXXY       0.0000   XXYY      -4.0443
      XYYY      -0.0000   YYYY      -4.8767   XXXZ       0.0000
      XXYZ      -0.0000   XYYZ       0.0000   YYYZ      -0.0000
      XXZZ      -5.3416   XYZZ       0.0000   YYZZ      -3.3112
      XZZZ       0.0000   YZZZ      -0.0000   ZZZZ     -15.1034
 -----------------------------------------------------------------
 Calculating analytic gradient of the SCF energy
 Gradient of SCF Energy
            1           2           3
    1   0.0000000  -0.0095832   0.0095832
    2   0.0000000  -0.0000000   0.0000000
    3   0.0410440  -0.0205220  -0.0205220
 Max gradient component =       4.104E-02
 RMS gradient           =       1.735E-02
 Gradient time:  CPU 0.15 s  wall 0.04 s
 Geometry Optimization Parameters
   NAtoms,    NIC,     NZ,  NCons,   NDum,   NFix, NCnnct, MaxDiis
        3       9       0       0       0       0       0       0

 Cartesian Hessian Update
 Hessian Updated using BFGS Update


** GEOMETRY OPTIMIZATION IN DELOCALIZED INTERNAL COORDINATES **
   Searching for a Minimum

   Optimization Cycle:   2

                       Coordinates (Angstroms)
     ATOM                X               Y               Z
      1  O         0.0000000000    0.0000000000    0.1144600462
      2  H        -0.9787116637    0.0000000000   -0.7572300231
      3  H         0.9787116637    0.0000000000   -0.7572300231
   Point Group: c2v   Number of degrees of freedom:     2


   Energy is    -75.370222874

 Hessian Updated using BFGS Update

  2 Hessian modes will be used to form the next step
  Hessian Eigenvalues:
     0.037341    0.172866

 Minimum Search - Taking Simple RFO Step
 Searching for Lamda that Minimizes Along All modes
 Value Taken    Lamda =  -0.02255968
 Calculated Step too Large.  Step scaled by  0.489183
 Step Taken.  Stepsize is  0.300000

                             Maximum     Tolerance    Cnvgd?
         Gradient           0.034867      0.000300      NO
         Displacement       0.288831      0.001200      NO
         Energy change     -0.013124      0.000001      NO


 New Cartesian Coordinates Obtained by Inverse Iteration

 Displacement from previous Coordinates is:  0.217524
 ----------------------------------------------------------------
             Standard Nuclear Orientation (Angstroms)
    I     Atom           X                Y                Z
 ----------------------------------------------------------------
    1      O       0.0000000000     0.0000000000     0.0206689827
    2      H      -0.9734727764     0.0000000000    -0.7103344914
    3      H       0.9734727764     0.0000000000    -0.7103344914
 ----------------------------------------------------------------
 Molecular Point Group                 C2v   NOp =  4
 Largest Abelian Subgroup              C2v   NOp =  4
 Nuclear Repulsion Energy =     7.2267607768 hartrees
 There are        6 alpha and        4 beta electrons
 Applying Cartesian multipole field
    Component          Value
    ---------          -----
     (2,0,0)        1.00000E-10
     (0,2,0)        2.00000E-10
     (0,0,2)       -3.00000E-10
 Nucleus-field energy     =    -0.0000000004 hartrees
 Requested basis set is 3-21G
 There are 7 shells and 13 basis functions
 A cutoff of  1.0D-11 yielded     28 shell pairs
 There are       103 function pairs
 Smallest overlap matrix eigenvalue = 1.55E-01
 Guess MOs from SCF MO coefficient file

 -----------------------------------------------------------------------
  General SCF calculation program by
  Eric Jon Sundstrom, Paul Horn, Yuezhi Mao, Dmitri Zuev, Alec White,
  David Stuck, Shaama M.S., Shane Yost, Joonho Lee, David Small,
  Daniel Levine, Susi Lehtola, Hugh Burton, Evgeny Epifanovsky
 -----------------------------------------------------------------------
 Hartree-Fock
 using 4 threads for integral computing
 -------------------------------------------------------
 OpenMP Integral computing Module                
 Release: version 1.0, May 2013, Q-Chem Inc. Pittsburgh 
 -------------------------------------------------------
 A unrestricted SCF calculation will be
 performed using DIIS
 SCF converges when DIIS error is below 1.0e-08
 ---------------------------------------
  Cycle       Energy         DIIS error
 ---------------------------------------
    1     -75.3750506659      5.20e-03  
    2     -75.3775713735      1.48e-03  
    3     -75.3778503464      5.85e-04  
    4     -75.3779131832      2.98e-04  
    5     -75.3779423501      1.06e-04  
    6     -75.3779473805      5.89e-05  
    7     -75.3779494650      1.95e-05  
    8     -75.3779496610      2.28e-06  
    9     -75.3779496628      4.14e-07  
   10     -75.3779496628      4.81e-08  
   11     -75.3779496628      5.65e-09  Convergence criterion met
 ---------------------------------------
 SCF time:   CPU 0.49s  wall 0.00s 
<S^2> =          2.019094364
 SCF   energy in the final basis set =      -75.3779496628
 Total energy in the final basis set =      -75.3779496628
 
 --------------------------------------------------------------
             Orbital Energies (a.u.) and Symmetries
 --------------------------------------------------------------
 
 Alpha MOs, Unrestricted
 -- Occupied --                  
-20.612  -1.425  -0.701  -0.680  -0.679  -0.230
  1 A1    2 A1    1 B2    3 A1    1 B1    4 A1                                 
 -- Virtual --                   
  0.152   1.057   1.113   1.591   1.756   1.920   2.763
  2 B1    5 A1    3 B1    2 B2    6 A1    4 B1    7 A1                         
 
 Beta MOs, Unrestricted
 -- Occupied --                  
-20.560  -1.219  -0.634  -0.568
  1 A1    2 A1    1 B1    3 A1                                                 
 -- Virtual --                   
  0.116   0.208   0.261   1.146   1.170   1.813   1.821   1.941
  1 B2    4 A1    2 B1    5 A1    3 B1    2 B2    6 A1    4 B1                 
  2.869
  7 A1                                                                         
 --------------------------------------------------------------
 
          Ground-State Mulliken Net Atomic Charges

     Atom                 Charge (a.u.)    Spin (a.u.)
  --------------------------------------------------------
      1 O                    -0.141734       1.012194
      2 H                     0.070867       0.493903
      3 H                     0.070867       0.493903
  --------------------------------------------------------
  Sum of atomic charges =    -0.000000
  Sum of spin   charges =     2.000000

 -----------------------------------------------------------------
                    Cartesian Multipole Moments
 -----------------------------------------------------------------
    Charge (ESU x 10^10)
                -0.0000
    Dipole Moment (Debye)
         X       0.0000      Y      -0.0000      Z      -0.3986
       Tot       0.3986
    Quadrupole Moments (Debye-Ang)
        XX      -7.2796     XY       0.0000     YY      -6.8315
        XZ      -0.0000     YZ      -0.0000     ZZ      -7.7909
    Octopole Moments (Debye-Ang^2)
       XXX       0.0000    XXY      -0.0000    XYY       0.0000
       YYY      -0.0000    XXZ       1.5408    XYZ       0.0000
       YYZ       1.6694    XZZ       0.0000    YZZ      -0.0000
       ZZZ       5.1307
    Hexadecapole Moments (Debye-Ang^3)
      XXXX     -19.4872   XXXY      -0.0000   XXYY      -4.0852
      XYYY      -0.0000   YYYY      -4.8844   XXXZ      -0.0000
      XXYZ      -0.0000   XYYZ      -0.0000   YYYZ      -0.0000
      XXZZ      -5.4161   XYZZ      -0.0000   YYZZ      -3.1160
      XZZZ      -0.0000   YZZZ      -0.0000   ZZZZ     -13.9768
 -----------------------------------------------------------------
 Calculating analytic gradient of the SCF energy
 Gradient of SCF Energy
            1           2           3
    1  -0.0000000   0.0080919  -0.0080919
    2  -0.0000000   0.0000000   0.0000000
    3   0.0153257  -0.0076629  -0.0076629
 Max gradient component =       1.533E-02
 RMS gradient           =       7.328E-03
 Gradient time:  CPU 0.14 s  wall 0.04 s
 Geometry Optimization Parameters
   NAtoms,    NIC,     NZ,  NCons,   NDum,   NFix, NCnnct, MaxDiis
        3       9       0       0       0       0       0       0

 Cartesian Hessian Update
 Hessian Updated using BFGS Update


** GEOMETRY OPTIMIZATION IN DELOCALIZED INTERNAL COORDINATES **
   Searching for a Minimum

   Optimization Cycle:   3

                       Coordinates (Angstroms)
     ATOM                X               Y               Z
      1  O         0.0000000000    0.0000000000    0.0206689827
      2  H        -0.9734727764    0.0000000000   -0.7103344914
      3  H         0.9734727764    0.0000000000   -0.7103344914
   Point Group: c2v   Number of degrees of freedom:     2


   Energy is    -75.377949663

 Hessian Updated using BFGS Update

  2 Hessian modes will be used to form the next step
  Hessian Eigenvalues:
     0.056084    0.255328

 Minimum Search - Taking Simple RFO Step
 Searching for Lamda that Minimizes Along All modes
 Value Taken    Lamda =  -0.00695354
 Calculated Step too Large.  Step scaled by  0.959418
 Step Taken.  Stepsize is  0.300000

                             Maximum     Tolerance    Cnvgd?
         Gradient           0.024840      0.000300      NO
         Displacement       0.225994      0.001200      NO
         Energy change     -0.007727      0.000001      NO


 New Cartesian Coordinates Obtained by Inverse Iteration

 Displacement from previous Coordinates is:  0.287662
 ----------------------------------------------------------------
             Standard Nuclear Orientation (Angstroms)
    I     Atom           X                Y                Z
 ----------------------------------------------------------------
    1      O       0.0000000000     0.0000000000    -0.0874706058
    2      H      -1.0265341253     0.0000000000    -0.6562646971
    3      H       1.0265341253     0.0000000000    -0.6562646971
 ----------------------------------------------------------------
 Molecular Point Group                 C2v   NOp =  4
 Largest Abelian Subgroup              C2v   NOp =  4
 Nuclear Repulsion Energy =     7.4722620277 hartrees
 There are        6 alpha and        4 beta electrons
 Applying Cartesian multipole field
    Component          Value
    ---------          -----
     (2,0,0)        1.00000E-10
     (0,2,0)        2.00000E-10
     (0,0,2)       -3.00000E-10
 Nucleus-field energy     =    -0.0000000002 hartrees
 Requested basis set is 3-21G
 There are 7 shells and 13 basis functions
 A cutoff of  1.0D-11 yielded     28 shell pairs
 There are       103 function pairs
 Smallest overlap matrix eigenvalue = 1.49E-01
 Guess MOs from SCF MO coefficient file

 -----------------------------------------------------------------------
  General SCF calculation program by
  Eric Jon Sundstrom, Paul Horn, Yuezhi Mao, Dmitri Zuev, Alec White,
  David Stuck, Shaama M.S., Shane Yost, Joonho Lee, David Small,
  Daniel Levine, Susi Lehtola, Hugh Burton, Evgeny Epifanovsky
 -----------------------------------------------------------------------
 Hartree-Fock
 using 4 threads for integral computing
 -------------------------------------------------------
 OpenMP Integral computing Module                
 Release: version 1.0, May 2013, Q-Chem Inc. Pittsburgh 
 -------------------------------------------------------
 A unrestricted SCF calculation will be
 performed using DIIS
 SCF converges when DIIS error is below 1.0e-08
 ---------------------------------------
  Cycle       Energy         DIIS error
 ---------------------------------------
    1     -75.3813768456      3.94e-03  
    2     -75.3829991936      1.29e-03  
    3     -75.3832002570      5.03e-04  
    4     -75.3832548300      2.50e-04  
    5     -75.3832773398      8.34e-05  
    6     -75.3832798774      3.75e-05  
    7     -75.3832805234      8.95e-06  
    8     -75.3832805554      6.57e-07  
    9     -75.3832805555      9.57e-08  
   10     -75.3832805555      1.54e-08  
   11     -75.3832805555      1.93e-09  Convergence criterion met
 ---------------------------------------
 SCF time:   CPU 0.46s  wall 0.00s 
<S^2> =          2.018533602
 SCF   energy in the final basis set =      -75.3832805555
 Total energy in the final basis set =      -75.3832805555
 
 --------------------------------------------------------------
             Orbital Energies (a.u.) and Symmetries
 --------------------------------------------------------------
 
 Alpha MOs, Unrestricted
 -- Occupied --                  
-20.611  -1.432  -0.719  -0.704  -0.662  -0.221
  1 A1    2 A1    1 B1    1 B2    3 A1    4 A1                                 
 -- Virtual --                   
  0.180   1.035   1.138   1.588   1.713   1.987   2.777
  2 B1    5 A1    3 B1    2 B2    6 A1    4 B1    7 A1                         
 
 Beta MOs, Unrestricted
 -- Occupied --                  
-20.560  -1.231  -0.666  -0.567
  1 A1    2 A1    1 B1    3 A1                                                 
 -- Virtual --                   
  0.112   0.211   0.291   1.125   1.203   1.771   1.810   2.009
  1 B2    4 A1    2 B1    5 A1    3 B1    6 A1    2 B2    4 B1                 
  2.878
  7 A1                                                                         
 --------------------------------------------------------------
 
          Ground-State Mulliken Net Atomic Charges

     Atom                 Charge (a.u.)    Spin (a.u.)
  --------------------------------------------------------
      1 O                    -0.158405       0.970515
      2 H                     0.079203       0.514743
      3 H                     0.079203       0.514743
  --------------------------------------------------------
  Sum of atomic charges =     0.000000
  Sum of spin   charges =     2.000000

 -----------------------------------------------------------------
                    Cartesian Multipole Moments
 -----------------------------------------------------------------
    Charge (ESU x 10^10)
                 0.0000
    Dipole Moment (Debye)
         X      -0.0000      Y      -0.0000      Z      -0.3828
       Tot       0.3828
    Quadrupole Moments (Debye-Ang)
        XX      -7.3167     XY      -0.0000     YY      -6.7663
        XZ       0.0000     YZ      -0.0000     ZZ      -7.6563
    Octopole Moments (Debye-Ang^2)
       XXX      -0.0000    XXY       0.0000    XYY      -0.0000
       YYY       0.0000    XXZ       2.0046    XYZ       0.0000
       YYZ       1.9603    XZZ      -0.0000    YZZ       0.0000
       ZZZ       6.2213
    Hexadecapole Moments (Debye-Ang^3)
      XXXX     -21.2169   XXXY      -0.0000   XXYY      -4.3299
      XYYY      -0.0000   YYYY      -4.8123   XXXZ       0.0000
      XXYZ      -0.0000   XYYZ       0.0000   YYYZ      -0.0000
      XXZZ      -5.5715   XYZZ      -0.0000   YYZZ      -2.8856
      XZZZ       0.0000   YZZZ      -0.0000   ZZZZ     -12.6553
 -----------------------------------------------------------------
 Calculating analytic gradient of the SCF energy
 Gradient of SCF Energy
            1           2           3
    1   0.0000000   0.0224789  -0.0224789
    2  -0.0000000   0.0000000  -0.0000000
    3   0.0001725  -0.0000863  -0.0000863
 Max gradient component =       2.248E-02
 RMS gradient           =       1.060E-02
 Gradient time:  CPU 0.14 s  wall 0.04 s
 Geometry Optimization Parameters
   NAtoms,    NIC,     NZ,  NCons,   NDum,   NFix, NCnnct, MaxDiis
        3       9       0       0       0       0       0       0

 Cartesian Hessian Update
 Hessian Updated using BFGS Update


** GEOMETRY OPTIMIZATION IN DELOCALIZED INTERNAL COORDINATES **
   Searching for a Minimum

   Optimization Cycle:   4

                       Coordinates (Angstroms)
     ATOM                X               Y               Z
      1  O         0.0000000000    0.0000000000   -0.0874706058
      2  H        -1.0265341253    0.0000000000   -0.6562646971
      3  H         1.0265341253    0.0000000000   -0.6562646971
   Point Group: c2v   Number of degrees of freedom:     2


   Energy is    -75.383280555

 Hessian Updated using BFGS Update

  2 Hessian modes will be used to form the next step
  Hessian Eigenvalues:
     0.019803    0.400595

 Minimum Search - Taking Simple RFO Step
 Searching for Lamda that Minimizes Along All modes
 Value Taken    Lamda =  -0.01289227
 Calculated Step too Large.  Step scaled by  0.526452
 Step Taken.  Stepsize is  0.300000

                             Maximum     Tolerance    Cnvgd?
         Gradient           0.031765      0.000300      NO
         Displacement       0.278944      0.001200      NO
         Energy change     -0.005331      0.000001      NO


 New Cartesian Coordinates Obtained by Inverse Iteration

 Displacement from previous Coordinates is:  0.307361
 ----------------------------------------------------------------
             Standard Nuclear Orientation (Angstroms)
    I     Atom           X                Y                Z
 ----------------------------------------------------------------
    1      O       0.0000000000     0.0000000000    -0.1953641637
    2      H      -1.0935901741     0.0000000000    -0.6023179181
    3      H       1.0935901741     0.0000000000    -0.6023179181
 ----------------------------------------------------------------
 Molecular Point Group                 C2v   NOp =  4
 Largest Abelian Subgroup              C2v   NOp =  4
 Nuclear Repulsion Energy =     7.4980604254 hartrees
 There are        6 alpha and        4 beta electrons
 Applying Cartesian multipole field
    Component          Value
    ---------          -----
     (2,0,0)        1.00000E-10
     (0,2,0)        2.00000E-10
     (0,0,2)       -3.00000E-10
 Nucleus-field energy     =    -0.0000000003 hartrees
 Requested basis set is 3-21G
 There are 7 shells and 13 basis functions
 A cutoff of  1.0D-11 yielded     28 shell pairs
 There are       103 function pairs
 Smallest overlap matrix eigenvalue = 1.49E-01
 Guess MOs from SCF MO coefficient file

 -----------------------------------------------------------------------
  General SCF calculation program by
  Eric Jon Sundstrom, Paul Horn, Yuezhi Mao, Dmitri Zuev, Alec White,
  David Stuck, Shaama M.S., Shane Yost, Joonho Lee, David Small,
  Daniel Levine, Susi Lehtola, Hugh Burton, Evgeny Epifanovsky
 -----------------------------------------------------------------------
 Hartree-Fock
 using 4 threads for integral computing
 -------------------------------------------------------
 OpenMP Integral computing Module                
 Release: version 1.0, May 2013, Q-Chem Inc. Pittsburgh 
 -------------------------------------------------------
 A unrestricted SCF calculation will be
 performed using DIIS
 SCF converges when DIIS error is below 1.0e-08
 ---------------------------------------
  Cycle       Energy         DIIS error
 ---------------------------------------
    1     -75.3871521809      3.63e-03  
    2     -75.3888597437      1.24e-03  
    3     -75.3891612075      5.61e-04  
    4     -75.3892376990      3.17e-04  
    5     -75.3892764438      1.07e-04  
    6     -75.3892804194      3.70e-05  
    7     -75.3892809138      8.04e-06  
    8     -75.3892809320      7.76e-07  
    9     -75.3892809321      1.55e-07  
   10     -75.3892809321      2.14e-08  
   11     -75.3892809321      2.00e-09  Convergence criterion met
 ---------------------------------------
 SCF time:   CPU 0.50s  wall 0.00s 
<S^2> =          2.022996667
 SCF   energy in the final basis set =      -75.3892809321
 Total energy in the final basis set =      -75.3892809321
 
 --------------------------------------------------------------
             Orbital Energies (a.u.) and Symmetries
 --------------------------------------------------------------
 
 Alpha MOs, Unrestricted
 -- Occupied --                  
-20.600  -1.420  -0.735  -0.696  -0.634  -0.233
  1 A1    2 A1    1 B1    1 B2    3 A1    4 A1                                 
 -- Virtual --                   
  0.198   1.009   1.157   1.595   1.689   2.080   2.772
  2 B1    5 A1    3 B1    2 B2    6 A1    4 B1    7 A1                         
 
 Beta MOs, Unrestricted
 -- Occupied --                  
-20.552  -1.227  -0.678  -0.553
  1 A1    2 A1    1 B1    3 A1                                                 
 -- Virtual --                   
  0.117   0.201   0.309   1.105   1.237   1.740   1.816   2.101
  1 B2    4 A1    2 B1    5 A1    3 B1    6 A1    2 B2    4 B1                 
  2.866
  7 A1                                                                         
 --------------------------------------------------------------
 
          Ground-State Mulliken Net Atomic Charges

     Atom                 Charge (a.u.)    Spin (a.u.)
  --------------------------------------------------------
      1 O                    -0.189141       0.917848
      2 H                     0.094571       0.541076
      3 H                     0.094571       0.541076
  --------------------------------------------------------
  Sum of atomic charges =     0.000000
  Sum of spin   charges =     2.000000

 -----------------------------------------------------------------
                    Cartesian Multipole Moments
 -----------------------------------------------------------------
    Charge (ESU x 10^10)
                 0.0000
    Dipole Moment (Debye)
         X      -0.0000      Y      -0.0000      Z      -0.3783
       Tot       0.3783
    Quadrupole Moments (Debye-Ang)
        XX      -7.0952     XY       0.0000     YY      -6.6934
        XZ       0.0000     YZ      -0.0000     ZZ      -7.4857
    Octopole Moments (Debye-Ang^2)
       XXX      -0.0000    XXY      -0.0000    XYY      -0.0000
       YYY      -0.0000    XXZ       2.2531    XYZ      -0.0000
       YYZ       2.2339    XZZ      -0.0000    YZZ       0.0000
       ZZZ       7.2258
    Hexadecapole Moments (Debye-Ang^3)
      XXXX     -22.5215   XXXY       0.0000   XXYY      -4.5523
      XYYY       0.0000   YYYY      -4.6904   XXXZ       0.0000
      XXYZ      -0.0000   XYYZ       0.0000   YYYZ      -0.0000
      XXZZ      -5.6736   XYZZ       0.0000   YYZZ      -2.7385
      XZZZ       0.0000   YZZZ      -0.0000   ZZZZ     -11.9693
 -----------------------------------------------------------------
 Calculating analytic gradient of the SCF energy
 Gradient of SCF Energy
            1           2           3
    1   0.0000000   0.0277976  -0.0277976
    2   0.0000000  -0.0000000   0.0000000
    3  -0.0024294   0.0012147   0.0012147
 Max gradient component =       2.780E-02
 RMS gradient           =       1.314E-02
 Gradient time:  CPU 0.13 s  wall 0.03 s
 Geometry Optimization Parameters
   NAtoms,    NIC,     NZ,  NCons,   NDum,   NFix, NCnnct, MaxDiis
        3       9       0       0       0       0       0       0

 Cartesian Hessian Update
 Hessian Updated using BFGS Update
**WARNING** Hereditary positive definiteness endangered


** GEOMETRY OPTIMIZATION IN DELOCALIZED INTERNAL COORDINATES **
   Searching for a Minimum

   Optimization Cycle:   5

                       Coordinates (Angstroms)
     ATOM                X               Y               Z
      1  O         0.0000000000    0.0000000000   -0.1953641637
      2  H        -1.0935901741    0.0000000000   -0.6023179181
      3  H         1.0935901741    0.0000000000   -0.6023179181
   Point Group: c2v   Number of degrees of freedom:     2


   Energy is    -75.389280932

 Hessian Updated using BFGS Update

  2 Hessian modes will be used to form the next step
  Hessian Eigenvalues:
     0.017142    0.347204

 Minimum Search - Taking Simple RFO Step
 Searching for Lamda that Minimizes Along All modes
 Value Taken    Lamda =  -0.01599414
 Calculated Step too Large.  Step scaled by  0.486266
 Step Taken.  Stepsize is  0.300000

                             Maximum     Tolerance    Cnvgd?
         Gradient           0.029698      0.000300      NO
         Displacement       0.297945      0.001200      NO
         Energy change     -0.006000      0.000001      NO


 New Cartesian Coordinates Obtained by Inverse Iteration

 Displacement from previous Coordinates is:  0.309069
 ----------------------------------------------------------------
             Standard Nuclear Orientation (Angstroms)
    I     Atom           X                Y                Z
 ----------------------------------------------------------------
    1      O       0.0000000000     0.0000000000    -0.3020029119
    2      H      -1.1632017782     0.0000000000    -0.5489985441
    3      H       1.1632017782     0.0000000000    -0.5489985441
 ----------------------------------------------------------------
 Molecular Point Group                 C2v   NOp =  4
 Largest Abelian Subgroup              C2v   NOp =  4
 Nuclear Repulsion Energy =     7.3476210906 hartrees
 There are        6 alpha and        4 beta electrons
 Applying Cartesian multipole field
    Component          Value
    ---------          -----
     (2,0,0)        1.00000E-10
     (0,2,0)        2.00000E-10
     (0,0,2)       -3.00000E-10
 Nucleus-field energy     =    -0.0000000005 hartrees
 Requested basis set is 3-21G
 There are 7 shells and 13 basis functions
 A cutoff of  1.0D-11 yielded     28 shell pairs
 There are       103 function pairs
 Smallest overlap matrix eigenvalue = 1.53E-01
 Guess MOs from SCF MO coefficient file

 -----------------------------------------------------------------------
  General SCF calculation program by
  Eric Jon Sundstrom, Paul Horn, Yuezhi Mao, Dmitri Zuev, Alec White,
  David Stuck, Shaama M.S., Shane Yost, Joonho Lee, David Small,
  Daniel Levine, Susi Lehtola, Hugh Burton, Evgeny Epifanovsky
 -----------------------------------------------------------------------
 Hartree-Fock
 using 4 threads for integral computing
 -------------------------------------------------------
 OpenMP Integral computing Module                
 Release: version 1.0, May 2013, Q-Chem Inc. Pittsburgh 
 -------------------------------------------------------
 A unrestricted SCF calculation will be
 performed using DIIS
 SCF converges when DIIS error is below 1.0e-08
 ---------------------------------------
  Cycle       Energy         DIIS error
 ---------------------------------------
    1     -75.3928189787      4.15e-03  
    2     -75.3951651257      1.33e-03  
    3     -75.3956468469      5.69e-04  
    4     -75.3957677942      2.48e-04  
    5     -75.3957867565      1.01e-04  
    6     -75.3957895524      3.90e-05  
    7     -75.3957900864      8.54e-06  
    8     -75.3957901061      9.17e-07  
    9     -75.3957901062      1.71e-07  
   10     -75.3957901063      2.17e-08  
   11     -75.3957901063      2.12e-09  Convergence criterion met
 ---------------------------------------
 SCF time:   CPU 0.50s  wall 1.00s 
<S^2> =          2.032116511
 SCF   energy in the final basis set =      -75.3957901063
 Total energy in the final basis set =      -75.3957901063
 
 --------------------------------------------------------------
             Orbital Energies (a.u.) and Symmetries
 --------------------------------------------------------------
 
 Alpha MOs, Unrestricted
 -- Occupied --                  
-20.587  -1.397  -0.729  -0.683  -0.605  -0.258
  1 A1    2 A1    1 B1    1 B2    3 A1    4 A1                                 
 -- Virtual --                   
  0.205   1.001   1.150   1.606   1.684   2.156   2.759
  2 B1    5 A1    3 B1    2 B2    6 A1    4 B1    7 A1                         
 
 Beta MOs, Unrestricted
 -- Occupied --                  
-20.543  -1.215  -0.669  -0.538
  1 A1    2 A1    1 B1    3 A1                                                 
 -- Virtual --                   
  0.126   0.184   0.314   1.104   1.245   1.726   1.825   2.176
  1 B2    4 A1    2 B1    5 A1    3 B1    6 A1    2 B2    4 B1                 
  2.847
  7 A1                                                                         
 --------------------------------------------------------------
 
          Ground-State Mulliken Net Atomic Charges

     Atom                 Charge (a.u.)    Spin (a.u.)
  --------------------------------------------------------
      1 O                    -0.217064       0.857382
      2 H                     0.108532       0.571309
      3 H                     0.108532       0.571309
  --------------------------------------------------------
  Sum of atomic charges =    -0.000000
  Sum of spin   charges =     2.000000

 -----------------------------------------------------------------
                    Cartesian Multipole Moments
 -----------------------------------------------------------------
    Charge (ESU x 10^10)
                -0.0000
    Dipole Moment (Debye)
         X      -0.0000      Y       0.0000      Z      -0.2848
       Tot       0.2848
    Quadrupole Moments (Debye-Ang)
        XX      -6.6901     XY       0.0000     YY      -6.6451
        XZ       0.0000     YZ      -0.0000     ZZ      -7.4471
    Octopole Moments (Debye-Ang^2)
       XXX      -0.0000    XXY       0.0000    XYY      -0.0000
       YYY       0.0000    XXZ       2.4237    XYZ      -0.0000
       YYZ       2.5408    XZZ      -0.0000    YZZ       0.0000
       ZZZ       8.4243
    Hexadecapole Moments (Debye-Ang^3)
      XXXX     -23.2742   XXXY       0.0000   XXYY      -4.7548
      XYYY       0.0000   YYYY      -4.5841   XXXZ       0.0000
      XXYZ      -0.0000   XYYZ       0.0000   YYYZ      -0.0000
      XXZZ      -5.8596   XYZZ       0.0000   YYZZ      -2.7494
      XZZZ       0.0000   YZZZ      -0.0000   ZZZZ     -12.4106
 -----------------------------------------------------------------
 Calculating analytic gradient of the SCF energy
 Gradient of SCF Energy
            1           2           3
    1   0.0000000   0.0211496  -0.0211496
    2  -0.0000000  -0.0000000   0.0000000
    3   0.0015407  -0.0007704  -0.0007704
 Max gradient component =       2.115E-02
 RMS gradient           =       9.990E-03
 Gradient time:  CPU 0.14 s  wall 0.04 s
 Geometry Optimization Parameters
   NAtoms,    NIC,     NZ,  NCons,   NDum,   NFix, NCnnct, MaxDiis
        3       9       0       0       0       0       0       0

 Cartesian Hessian Update
 Hessian Updated using BFGS Update


** GEOMETRY OPTIMIZATION IN DELOCALIZED INTERNAL COORDINATES **
   Searching for a Minimum

   Optimization Cycle:   6

                       Coordinates (Angstroms)
     ATOM                X               Y               Z
      1  O         0.0000000000    0.0000000000   -0.3020029119
      2  H        -1.1632017782    0.0000000000   -0.5489985441
      3  H         1.1632017782    0.0000000000   -0.5489985441
   Point Group: c2v   Number of degrees of freedom:     2


   Energy is    -75.395790106

 Hessian Updated using BFGS Update

  2 Hessian modes will be used to form the next step
  Hessian Eigenvalues:
     0.027079    0.248475

 Minimum Search - Taking Simple RFO Step
 Searching for Lamda that Minimizes Along All modes
 Value Taken    Lamda =  -0.00872439
 Calculated Step too Large.  Step scaled by  0.724297
 Step Taken.  Stepsize is  0.300000

                             Maximum     Tolerance    Cnvgd?
         Gradient           0.023982      0.000300      NO
         Displacement       0.299714      0.001200      NO
         Energy change     -0.006509      0.000001      NO


 New Cartesian Coordinates Obtained by Inverse Iteration

 Displacement from previous Coordinates is:  0.301366
 ----------------------------------------------------------------
             Standard Nuclear Orientation (Angstroms)
    I     Atom           X                Y                Z
 ----------------------------------------------------------------
    1      O       0.0000000000     0.0000000000    -0.4102873336
    2      H      -1.2258292476     0.0000000000    -0.4948563332
    3      H       1.2258292476     0.0000000000    -0.4948563332
 ----------------------------------------------------------------
 Molecular Point Group                 C2v   NOp =  4
 Largest Abelian Subgroup              C2v   NOp =  4
 Nuclear Repulsion Energy =     7.1064927134 hartrees
 There are        6 alpha and        4 beta electrons
 Applying Cartesian multipole field
    Component          Value
    ---------          -----
     (2,0,0)        1.00000E-10
     (0,2,0)        2.00000E-10
     (0,0,2)       -3.00000E-10
 Nucleus-field energy     =    -0.0000000009 hartrees
 Requested basis set is 3-21G
 There are 7 shells and 13 basis functions
 A cutoff of  1.0D-11 yielded     28 shell pairs
 There are       103 function pairs
 Smallest overlap matrix eigenvalue = 1.58E-01
 Guess MOs from SCF MO coefficient file

 -----------------------------------------------------------------------
  General SCF calculation program by
  Eric Jon Sundstrom, Paul Horn, Yuezhi Mao, Dmitri Zuev, Alec White,
  David Stuck, Shaama M.S., Shane Yost, Joonho Lee, David Small,
  Daniel Levine, Susi Lehtola, Hugh Burton, Evgeny Epifanovsky
 -----------------------------------------------------------------------
 Hartree-Fock
 using 4 threads for integral computing
 -------------------------------------------------------
 OpenMP Integral computing Module                
 Release: version 1.0, May 2013, Q-Chem Inc. Pittsburgh 
 -------------------------------------------------------
 A unrestricted SCF calculation will be
 performed using DIIS
 SCF converges when DIIS error is below 1.0e-08
 ---------------------------------------
  Cycle       Energy         DIIS error
 ---------------------------------------
    1     -75.3967464577      4.38e-03  
    2     -75.3994045547      1.39e-03  
    3     -75.3999551954      6.06e-04  
    4     -75.4000805117      2.87e-04  
    5     -75.4001063780      8.88e-05  
    6     -75.4001087022      3.81e-05  
    7     -75.4001092625      9.05e-06  
    8     -75.4001092867      9.10e-07  
    9     -75.4001092869      1.79e-07  
   10     -75.4001092869      2.58e-08  
   11     -75.4001092869      3.58e-09  Convergence criterion met
 ---------------------------------------
 SCF time:   CPU 0.51s  wall 0.00s 
<S^2> =          2.045768479
 SCF   energy in the final basis set =      -75.4001092869
 Total energy in the final basis set =      -75.4001092869
 
 --------------------------------------------------------------
             Orbital Energies (a.u.) and Symmetries
 --------------------------------------------------------------
 
 Alpha MOs, Unrestricted
 -- Occupied --                  
-20.578  -1.375  -0.709  -0.671  -0.585  -0.285
  1 A1    2 A1    1 B1    1 B2    3 A1    4 A1                                 
 -- Virtual --                   
  0.202   1.009   1.125   1.616   1.687   2.180   2.742
  2 B1    5 A1    3 B1    2 B2    6 A1    4 B1    7 A1                         
 
 Beta MOs, Unrestricted
 -- Occupied --                  
-20.537  -1.203  -0.652  -0.529
  1 A1    2 A1    1 B1    3 A1                                                 
 -- Virtual --                   
  0.134   0.167   0.307   1.120   1.231   1.722   1.832   2.195
  1 B2    4 A1    2 B1    5 A1    3 B1    6 A1    2 B2    4 B1                 
  2.824
  7 A1                                                                         
 --------------------------------------------------------------
 
          Ground-State Mulliken Net Atomic Charges

     Atom                 Charge (a.u.)    Spin (a.u.)
  --------------------------------------------------------
      1 O                    -0.225784       0.800857
      2 H                     0.112892       0.599571
      3 H                     0.112892       0.599571
  --------------------------------------------------------
  Sum of atomic charges =     0.000000
  Sum of spin   charges =     2.000000

 -----------------------------------------------------------------
                    Cartesian Multipole Moments
 -----------------------------------------------------------------
    Charge (ESU x 10^10)
                 0.0000
    Dipole Moment (Debye)
         X       0.0000      Y      -0.0000      Z      -0.1046
       Tot       0.1046
    Quadrupole Moments (Debye-Ang)
        XX      -6.3137     XY       0.0000     YY      -6.6352
        XZ      -0.0000     YZ      -0.0000     ZZ      -7.5681
    Octopole Moments (Debye-Ang^2)
       XXX       0.0000    XXY      -0.0000    XYY       0.0000
       YYY      -0.0000    XXZ       2.6898    XYZ      -0.0000
       YYZ       2.9007    XZZ       0.0000    YZZ       0.0000
       ZZZ       9.9028
    Hexadecapole Moments (Debye-Ang^3)
      XXXX     -23.9074   XXXY       0.0000   XXYY      -4.9755
      XYYY       0.0000   YYYY      -4.5346   XXXZ      -0.0000
      XXYZ      -0.0000   XYYZ      -0.0000   YYYZ      -0.0000
      XXZZ      -6.2806   XYZZ       0.0000   YYZZ      -2.9436
      XZZZ      -0.0000   YZZZ      -0.0000   ZZZZ     -14.1262
 -----------------------------------------------------------------
 Calculating analytic gradient of the SCF energy
 Gradient of SCF Energy
            1           2           3
    1  -0.0000000   0.0081095  -0.0081095
    2   0.0000000  -0.0000000   0.0000000
    3   0.0023295  -0.0011647  -0.0011647
 Max gradient component =       8.109E-03
 RMS gradient           =       3.939E-03
 Gradient time:  CPU 0.14 s  wall 0.04 s
 Geometry Optimization Parameters
   NAtoms,    NIC,     NZ,  NCons,   NDum,   NFix, NCnnct, MaxDiis
        3       9       0       0       0       0       0       0

 Cartesian Hessian Update
 Hessian Updated using BFGS Update


** GEOMETRY OPTIMIZATION IN DELOCALIZED INTERNAL COORDINATES **
   Searching for a Minimum

   Optimization Cycle:   7

                       Coordinates (Angstroms)
     ATOM                X               Y               Z
      1  O         0.0000000000    0.0000000000   -0.4102873336
      2  H        -1.2258292476    0.0000000000   -0.4948563332
      3  H         1.2258292476    0.0000000000   -0.4948563332
   Point Group: c2v   Number of degrees of freedom:     2


   Energy is    -75.400109287

 Hessian Updated using BFGS Update

  2 Hessian modes will be used to form the next step
  Hessian Eigenvalues:
     0.032230    0.220173

 Minimum Search - Taking Simple RFO Step
 Searching for Lamda that Minimizes Along All modes
 Value Taken    Lamda =  -0.00131785
 Step Taken.  Stepsize is  0.160775

                             Maximum     Tolerance    Cnvgd?
         Gradient           0.009519      0.000300      NO
         Displacement       0.160037      0.001200      NO
         Energy change     -0.004319      0.000001      NO


 New Cartesian Coordinates Obtained by Inverse Iteration

  ***ERROR*** Exceeded allowed number of iterative cycles in GetCART
**WARNING** Problems with Internal Coordinates
  Switching to Cartesian Coordinates

 Translations and Rotations Projected Out of Hessian

  2 Hessian modes will be used to form the next step
  Hessian Eigenvalues:
     0.028343    0.963299

 Minimum Search - Taking Simple RFO Step
 Searching for Lamda that Minimizes Along All modes
 Value Taken    Lamda =  -0.00230979
 Step Taken.  Stepsize is  0.270240

                             Maximum     Tolerance    Cnvgd?
         Gradient           0.008109      0.000300      NO
         Displacement       0.186396      0.001200      NO
         Energy change     -0.004319      0.000001      NO

 ----------------------------------------------------------------
             Standard Nuclear Orientation (Angstroms)
    I     Atom           X                Y                Z
 ----------------------------------------------------------------
    1      O       0.0000000000     0.0000000000    -0.5089240764
    2      H      -1.2799432384     0.0000000000    -0.4455379618
    3      H       1.2799432384     0.0000000000    -0.4455379618
 ----------------------------------------------------------------
 Molecular Point Group                 C2v   NOp =  4
 Largest Abelian Subgroup              C2v   NOp =  4
 Nuclear Repulsion Energy =     6.8136307689 hartrees
 There are        6 alpha and        4 beta electrons
 Applying Cartesian multipole field
    Component          Value
    ---------          -----
     (2,0,0)        1.00000E-10
     (0,2,0)        2.00000E-10
     (0,0,2)       -3.00000E-10
 Nucleus-field energy     =    -0.0000000015 hartrees
 Requested basis set is 3-21G
 There are 7 shells and 13 basis functions
 A cutoff of  1.0D-11 yielded     28 shell pairs
 There are       103 function pairs
 Smallest overlap matrix eigenvalue = 1.64E-01
 Guess MOs from SCF MO coefficient file

 -----------------------------------------------------------------------
  General SCF calculation program by
  Eric Jon Sundstrom, Paul Horn, Yuezhi Mao, Dmitri Zuev, Alec White,
  David Stuck, Shaama M.S., Shane Yost, Joonho Lee, David Small,
  Daniel Levine, Susi Lehtola, Hugh Burton, Evgeny Epifanovsky
 -----------------------------------------------------------------------
 Hartree-Fock
 using 4 threads for integral computing
 -------------------------------------------------------
 OpenMP Integral computing Module                
 Release: version 1.0, May 2013, Q-Chem Inc. Pittsburgh 
 -------------------------------------------------------
 A unrestricted SCF calculation will be
 performed using DIIS
 SCF converges when DIIS error is below 1.0e-08
 ---------------------------------------
  Cycle       Energy         DIIS error
 ---------------------------------------
    1     -75.3976656167      4.01e-03  
    2     -75.3998229491      1.31e-03  
    3     -75.4002313443      5.77e-04  
    4     -75.4003265122      3.01e-04  
    5     -75.4003587878      7.91e-05  
    6     -75.4003608481      3.53e-05  
    7     -75.4003613895      1.01e-05  
    8     -75.4003614245      1.01e-06  
    9     -75.4003614248      1.58e-07  
   10     -75.4003614248      1.69e-08  
   11     -75.4003614248      3.32e-09  Convergence criterion met
 ---------------------------------------
 SCF time:   CPU 0.50s  wall 0.00s 
<S^2> =          2.066280091
 SCF   energy in the final basis set =      -75.4003614248
 Total energy in the final basis set =      -75.4003614248
 
 --------------------------------------------------------------
             Orbital Energies (a.u.) and Symmetries
 --------------------------------------------------------------
 
 Alpha MOs, Unrestricted
 -- Occupied --                  
-20.574  -1.356  -0.682  -0.663  -0.577  -0.307
  1 A1    2 A1    1 B1    1 B2    3 A1    4 A1                                 
 -- Virtual --                   
  0.190   1.027   1.099   1.623   1.693   2.153   2.721
  2 B1    5 A1    3 B1    2 B2    6 A1    4 B1    7 A1                         
 
 Beta MOs, Unrestricted
 -- Occupied --                  
-20.537  -1.194  -0.632  -0.525
  1 A1    2 A1    1 B1    3 A1                                                 
 -- Virtual --                   
  0.139   0.153   0.290   1.143   1.209   1.725   1.836   2.161
  1 B2    4 A1    2 B1    5 A1    3 B1    6 A1    2 B2    4 B1                 
  2.798
  7 A1                                                                         
 --------------------------------------------------------------
 
          Ground-State Mulliken Net Atomic Charges

     Atom                 Charge (a.u.)    Spin (a.u.)
  --------------------------------------------------------
      1 O                    -0.212007       0.751917
      2 H                     0.106004       0.624041
      3 H                     0.106004       0.624041
  --------------------------------------------------------
  Sum of atomic charges =     0.000000
  Sum of spin   charges =     2.000000

 -----------------------------------------------------------------
                    Cartesian Multipole Moments
 -----------------------------------------------------------------
    Charge (ESU x 10^10)
                 0.0000
    Dipole Moment (Debye)
         X       0.0000      Y      -0.0000      Z       0.0747
       Tot       0.0747
    Quadrupole Moments (Debye-Ang)
        XX      -6.0880     XY      -0.0000     YY      -6.6586
        XZ      -0.0000     YZ      -0.0000     ZZ      -7.7545
    Octopole Moments (Debye-Ang^2)
       XXX      -0.0000    XXY      -0.0000    XYY       0.0000
       YYY      -0.0000    XXZ       3.0416    XYZ       0.0000
       YYZ       3.2547    XZZ       0.0000    YZZ       0.0000
       ZZZ      11.3794
    Hexadecapole Moments (Debye-Ang^3)
      XXXX     -24.8416   XXXY      -0.0000   XXYY      -5.2411
      XYYY      -0.0000   YYYY      -4.5402   XXXZ       0.0000
      XXYZ      -0.0000   XYYZ      -0.0000   YYYZ      -0.0000
      XXZZ      -6.9158   XYZZ      -0.0000   YYZZ      -3.2629
      XZZZ      -0.0000   YZZZ      -0.0000   ZZZZ     -16.6617
 -----------------------------------------------------------------
 Calculating analytic gradient of the SCF energy
 Gradient of SCF Energy
            1           2           3
    1   0.0000000  -0.0060455   0.0060455
    2  -0.0000000   0.0000000  -0.0000000
    3  -0.0031963   0.0015981   0.0015981
 Max gradient component =       6.045E-03
 RMS gradient           =       3.134E-03
 Gradient time:  CPU 0.14 s  wall 0.04 s
 Geometry Optimization Parameters
   NAtoms,    NIC,     NZ,  NCons,   NDum,   NFix, NCnnct, MaxDiis
        3       9       0       0       0       0       0       0

 Cartesian Hessian Update
 Hessian Updated using BFGS Update


** GEOMETRY OPTIMIZATION IN CARTESIAN COORDINATES **
   Searching for a Minimum

   Optimization Cycle:   8

                       Coordinates (Angstroms)
     ATOM                X               Y               Z
      1  O         0.0000000000    0.0000000000   -0.5089240764
      2  H        -1.2799432384    0.0000000000   -0.4455379618
      3  H         1.2799432384    0.0000000000   -0.4455379618
   Point Group: c2v   Number of degrees of freedom:     2


   Energy is    -75.400361425


 Translations and Rotations Projected Out of Hessian

  2 Hessian modes will be used to form the next step
  Hessian Eigenvalues:
     0.058148    0.973637

 Minimum Search - Taking Simple RFO Step
 Searching for Lamda that Minimizes Along All modes
 Value Taken    Lamda =  -0.00100641
 Step Taken.  Stepsize is  0.128520

                             Maximum     Tolerance    Cnvgd?
         Gradient           0.006045      0.000300      NO
         Displacement       0.089177      0.001200      NO
         Energy change     -0.000252      0.000001      NO

 ----------------------------------------------------------------
             Standard Nuclear Orientation (Angstroms)
    I     Atom           X                Y                Z
 ----------------------------------------------------------------
    1      O       0.0000000000     0.0000000000    -0.4617333914
    2      H      -1.2545967823     0.0000000000    -0.4691333043
    3      H       1.2545967823     0.0000000000    -0.4691333043
 ----------------------------------------------------------------
 Molecular Point Group                 C2v   NOp =  4
 Largest Abelian Subgroup              C2v   NOp =  4
 Nuclear Repulsion Energy =     6.9594285812 hartrees
 There are        6 alpha and        4 beta electrons
 Applying Cartesian multipole field
    Component          Value
    ---------          -----
     (2,0,0)        1.00000E-10
     (0,2,0)        2.00000E-10
     (0,0,2)       -3.00000E-10
 Nucleus-field energy     =    -0.0000000012 hartrees
 Requested basis set is 3-21G
 There are 7 shells and 13 basis functions
 A cutoff of  1.0D-11 yielded     28 shell pairs
 There are       103 function pairs
 Smallest overlap matrix eigenvalue = 1.61E-01
 Guess MOs from SCF MO coefficient file

 -----------------------------------------------------------------------
  General SCF calculation program by
  Eric Jon Sundstrom, Paul Horn, Yuezhi Mao, Dmitri Zuev, Alec White,
  David Stuck, Shaama M.S., Shane Yost, Joonho Lee, David Small,
  Daniel Levine, Susi Lehtola, Hugh Burton, Evgeny Epifanovsky
 -----------------------------------------------------------------------
 Hartree-Fock
 using 4 threads for integral computing
 -------------------------------------------------------
 OpenMP Integral computing Module                
 Release: version 1.0, May 2013, Q-Chem Inc. Pittsburgh 
 -------------------------------------------------------
 A unrestricted SCF calculation will be
 performed using DIIS
 SCF converges when DIIS error is below 1.0e-08
 ---------------------------------------
  Cycle       Energy         DIIS error
 ---------------------------------------
    1     -75.4002150283      1.87e-03  
    2     -75.4006839657      6.17e-04  
    3     -75.4007733883      2.69e-04  
    4     -75.4007930753      1.42e-04  
    5     -75.4008003688      3.78e-05  
    6     -75.4008008224      1.58e-05  
    7     -75.4008009230      3.58e-06  
    8     -75.4008009269      4.35e-07  
    9     -75.4008009269      6.73e-08  
   10     -75.4008009269      1.11e-08  
   11     -75.4008009269      2.00e-09  Convergence criterion met
 ---------------------------------------
 SCF time:   CPU 0.49s  wall 0.00s 
<S^2> =          2.055219162
 SCF   energy in the final basis set =      -75.4008009269
 Total energy in the final basis set =      -75.4008009269
 
 --------------------------------------------------------------
             Orbital Energies (a.u.) and Symmetries
 --------------------------------------------------------------
 
 Alpha MOs, Unrestricted
 -- Occupied --                  
-20.575  -1.364  -0.696  -0.667  -0.579  -0.297
  1 A1    2 A1    1 B1    1 B2    3 A1    4 A1                                 
 -- Virtual --                   
  0.196   1.018   1.111   1.620   1.689   2.170   2.732
  2 B1    5 A1    3 B1    2 B2    6 A1    4 B1    7 A1                         
 
 Beta MOs, Unrestricted
 -- Occupied --                  
-20.536  -1.198  -0.642  -0.527
  1 A1    2 A1    1 B1    3 A1                                                 
 -- Virtual --                   
  0.137   0.159   0.299   1.132   1.219   1.723   1.834   2.182
  1 B2    4 A1    2 B1    5 A1    3 B1    6 A1    2 B2    4 B1                 
  2.811
  7 A1                                                                         
 --------------------------------------------------------------
 
          Ground-State Mulliken Net Atomic Charges

     Atom                 Charge (a.u.)    Spin (a.u.)
  --------------------------------------------------------
      1 O                    -0.220888       0.775294
      2 H                     0.110444       0.612353
      3 H                     0.110444       0.612353
  --------------------------------------------------------
  Sum of atomic charges =     0.000000
  Sum of spin   charges =     2.000000

 -----------------------------------------------------------------
                    Cartesian Multipole Moments
 -----------------------------------------------------------------
    Charge (ESU x 10^10)
                 0.0000
    Dipole Moment (Debye)
         X       0.0000      Y      -0.0000      Z      -0.0090
       Tot       0.0090
    Quadrupole Moments (Debye-Ang)
        XX      -6.1787     XY      -0.0000     YY      -6.6443
        XZ      -0.0000     YZ       0.0000     ZZ      -7.6614
    Octopole Moments (Debye-Ang^2)
       XXX       0.0000    XXY      -0.0000    XYY       0.0000
       YYY      -0.0000    XXZ       2.8604    XYZ       0.0000
       YYZ       3.0835    XZZ       0.0000    YZZ      -0.0000
       ZZZ      10.6651
    Hexadecapole Moments (Debye-Ang^3)
      XXXX     -24.3423   XXXY      -0.0000   XXYY      -5.1069
      XYYY      -0.0000   YYYY      -4.5323   XXXZ      -0.0000
      XXYZ       0.0000   XYYZ      -0.0000   YYYZ       0.0000
      XXZZ      -6.5840   XYZZ      -0.0000   YYZZ      -3.0947
      XZZZ      -0.0000   YZZZ       0.0000   ZZZZ     -15.3440
 -----------------------------------------------------------------
 Calculating analytic gradient of the SCF energy
 Gradient of SCF Energy
            1           2           3
    1  -0.0000000   0.0006120  -0.0006120
    2   0.0000000   0.0000000  -0.0000000
    3   0.0002942  -0.0001471  -0.0001471
 Max gradient component =       6.120E-04
 RMS gradient           =       3.125E-04
 Gradient time:  CPU 0.13 s  wall 0.03 s
 Geometry Optimization Parameters
   NAtoms,    NIC,     NZ,  NCons,   NDum,   NFix, NCnnct, MaxDiis
        3       9       0       0       0       0       0       0

 Cartesian Hessian Update
 Hessian Updated using BFGS Update


** GEOMETRY OPTIMIZATION IN CARTESIAN COORDINATES **
   Searching for a Minimum

   Optimization Cycle:   9

                       Coordinates (Angstroms)
     ATOM                X               Y               Z
      1  O         0.0000000000    0.0000000000   -0.4617333914
      2  H        -1.2545967823    0.0000000000   -0.4691333043
      3  H         1.2545967823    0.0000000000   -0.4691333043
   Point Group: c2v   Number of degrees of freedom:     2


   Energy is    -75.400800927


 Translations and Rotations Projected Out of Hessian

  2 Hessian modes will be used to form the next step
  Hessian Eigenvalues:
     0.064680    0.976615

 Minimum Search - Taking Simple RFO Step
 Searching for Lamda that Minimizes Along All modes
 Value Taken    Lamda =  -0.00000869
 Step Taken.  Stepsize is  0.011372

                             Maximum     Tolerance    Cnvgd?
         Gradient           0.000612      0.000300      NO
         Displacement       0.007875      0.001200      NO
         Energy change     -0.000440      0.000001      NO

 ----------------------------------------------------------------
             Standard Nuclear Orientation (Angstroms)
    I     Atom           X                Y                Z
 ----------------------------------------------------------------
    1      O       0.0000000000     0.0000000000    -0.4659004759
    2      H      -1.2568516685     0.0000000000    -0.4670497620
    3      H       1.2568516685     0.0000000000    -0.4670497620
 ----------------------------------------------------------------
 Molecular Point Group                 C2v   NOp =  4
 Largest Abelian Subgroup              C2v   NOp =  4
 Nuclear Repulsion Energy =     6.9470572045 hartrees
 There are        6 alpha and        4 beta electrons
 Applying Cartesian multipole field
    Component          Value
    ---------          -----
     (2,0,0)        1.00000E-10
     (0,2,0)        2.00000E-10
     (0,0,2)       -3.00000E-10
 Nucleus-field energy     =    -0.0000000012 hartrees
 Requested basis set is 3-21G
 There are 7 shells and 13 basis functions
 A cutoff of  1.0D-11 yielded     28 shell pairs
 There are       103 function pairs
 Smallest overlap matrix eigenvalue = 1.61E-01
 Guess MOs from SCF MO coefficient file

 -----------------------------------------------------------------------
  General SCF calculation program by
  Eric Jon Sundstrom, Paul Horn, Yuezhi Mao, Dmitri Zuev, Alec White,
  David Stuck, Shaama M.S., Shane Yost, Joonho Lee, David Small,
  Daniel Levine, Susi Lehtola, Hugh Burton, Evgeny Epifanovsky
 -----------------------------------------------------------------------
 Hartree-Fock
 using 4 threads for integral computing
 -------------------------------------------------------
 OpenMP Integral computing Module                
 Release: version 1.0, May 2013, Q-Chem Inc. Pittsburgh 
 -------------------------------------------------------
 A unrestricted SCF calculation will be
 performed using DIIS
 SCF converges when DIIS error is below 1.0e-08
 ---------------------------------------
  Cycle       Energy         DIIS error
 ---------------------------------------
    1     -75.4008008988      1.67e-04  
    2     -75.4008046751      5.48e-05  
    3     -75.4008054010      2.39e-05  
    4     -75.4008055604      1.25e-05  
    5     -75.4008056164      3.27e-06  
    6     -75.4008056197      1.41e-06  
    7     -75.4008056205      3.39e-07  
    8     -75.4008056206      3.76e-08  
    9     -75.4008056206      5.78e-09  Convergence criterion met
 ---------------------------------------
 SCF time:   CPU 0.41s  wall 0.00s 
<S^2> =          2.056082718
 SCF   energy in the final basis set =      -75.4008056206
 Total energy in the final basis set =      -75.4008056206
 
 --------------------------------------------------------------
             Orbital Energies (a.u.) and Symmetries
 --------------------------------------------------------------
 
 Alpha MOs, Unrestricted
 -- Occupied --                  
-20.575  -1.364  -0.695  -0.666  -0.579  -0.298
  1 A1    2 A1    1 B1    1 B2    3 A1    4 A1                                 
 -- Virtual --                   
  0.196   1.018   1.110   1.620   1.690   2.169   2.731
  2 B1    5 A1    3 B1    2 B2    6 A1    4 B1    7 A1                         
 
 Beta MOs, Unrestricted
 -- Occupied --                  
-20.536  -1.198  -0.641  -0.527
  1 A1    2 A1    1 B1    3 A1                                                 
 -- Virtual --                   
  0.137   0.159   0.299   1.133   1.218   1.723   1.834   2.181
  1 B2    4 A1    2 B1    5 A1    3 B1    6 A1    2 B2    4 B1                 
  2.810
  7 A1                                                                         
 --------------------------------------------------------------
 
          Ground-State Mulliken Net Atomic Charges

     Atom                 Charge (a.u.)    Spin (a.u.)
  --------------------------------------------------------
      1 O                    -0.220266       0.773268
      2 H                     0.110133       0.613366
      3 H                     0.110133       0.613366
  --------------------------------------------------------
  Sum of atomic charges =    -0.000000
  Sum of spin   charges =     2.000000

 -----------------------------------------------------------------
                    Cartesian Multipole Moments
 -----------------------------------------------------------------
    Charge (ESU x 10^10)
                -0.0000
    Dipole Moment (Debye)
         X      -0.0000      Y       0.0000      Z      -0.0014
       Tot       0.0014
    Quadrupole Moments (Debye-Ang)
        XX      -6.1696     XY      -0.0000     YY      -6.6454
        XZ       0.0000     YZ      -0.0000     ZZ      -7.6695
    Octopole Moments (Debye-Ang^2)
       XXX      -0.0000    XXY       0.0000    XYY      -0.0000
       YYY       0.0000    XXZ       2.8755    XYZ       0.0000
       YYZ       3.0985    XZZ      -0.0000    YZZ       0.0000
       ZZZ      10.7278
    Hexadecapole Moments (Debye-Ang^3)
      XXXX     -24.3820   XXXY      -0.0000   XXYY      -5.1181
      XYYY      -0.0000   YYYY      -4.5327   XXXZ       0.0000
      XXYZ      -0.0000   XYYZ       0.0000   YYYZ      -0.0000
      XXZZ      -6.6112   XYZZ      -0.0000   YYZZ      -3.1084
      XZZZ       0.0000   YZZZ      -0.0000   ZZZZ     -15.4529
 -----------------------------------------------------------------
 Calculating analytic gradient of the SCF energy
 Gradient of SCF Energy
            1           2           3
    1   0.0000000   0.0000140  -0.0000140
    2   0.0000000  -0.0000000  -0.0000000
    3   0.0000468  -0.0000234  -0.0000234
 Max gradient component =       4.680E-05
 RMS gradient           =       2.022E-05
 Gradient time:  CPU 0.14 s  wall 0.04 s
 Geometry Optimization Parameters
   NAtoms,    NIC,     NZ,  NCons,   NDum,   NFix, NCnnct, MaxDiis
        3       9       0       0       0       0       0       0

 Cartesian Hessian Update
 Hessian Updated using BFGS Update


** GEOMETRY OPTIMIZATION IN CARTESIAN COORDINATES **
   Searching for a Minimum

   Optimization Cycle:  10

                       Coordinates (Angstroms)
     ATOM                X               Y               Z
      1  O         0.0000000000    0.0000000000   -0.4659004759
      2  H        -1.2568516685    0.0000000000   -0.4670497620
      3  H         1.2568516685    0.0000000000   -0.4670497620
   Point Group: c2v   Number of degrees of freedom:     2


   Energy is    -75.400805621


 Translations and Rotations Projected Out of Hessian

[...]
 Y. M. Rhee,  J. Ritchie,  M. A. Rohrdanz,  E. Rosta,  N. J. Russ,  
 H. F. Schaefer III,  N. E. Schultz,  N. Shenvi,  A. C. Simmonett,  A. Sodt,  
 D. Stuck,  K. S. Thanthiriwatte,  V. Vanovschi,  Tao Wang,  A. Warshel,  
 C. F. Williams,  Q. Wu,  X. Xu,  W. Zhang

 Please cite Q-Chem as follows:
 Y. Shao et al., Mol. Phys. 113, 184-215 (2015)
 DOI: 10.1080/00268976.2014.952696

 Q-Chem 5.1.1 for Intel X86 EM64T Linux

 Parts of Q-Chem use Armadillo 8.300.2 (Tropical Shenanigans).
 http://arma.sourceforge.net/

 Q-Chem begins on Thu Sep 20 06:45:33 2018  

Host: 
0

     Scratch files written to ./qchem28774//
 Aug318 |scratch|qcdevops|jenkins|workspace|build_RNUM    
 Parallel job on  1  processors
Processing $rem in /opt/qchem/config/preferences.
 MEM_TOTAL  4000 
The previous job contains 0 fragments, simply inherited here
Input Ideriv = 2
Curr. Ideriv = -1
Max.  Ideriv = 2

Checking the input file for inconsistencies... 	...done.

--------------------------------------------------------------
User input:
--------------------------------------------------------------

$molecule
read
$end

$rem
BASIS       3-21G
JOBTYPE     freq
METHOD      hf
SCF_GUESS   read

vibman_print 6
$end

--------------------------------------------------------------
 ----------------------------------------------------------------
             Standard Nuclear Orientation (Angstroms)
    I     Atom           X                Y                Z
 ----------------------------------------------------------------
    1      O       0.0000000000    -0.0002298572     0.0000000000
    2      H      -0.0000000000     0.0009194289    -1.2568516685
    3      H       0.0000000000     0.0009194289     1.2568516685
 ----------------------------------------------------------------
 Molecular Point Group                 C*v   NOp =***
 Largest Abelian Subgroup              C2v   NOp =  1
 Nuclear Repulsion Energy =     6.9470572045 hartrees
 There are        6 alpha and        4 beta electrons
 Requested basis set is 3-21G
 There are 7 shells and 13 basis functions

 Total QAlloc Memory Limit   4000 MB
 Mega-Array Size       188 MB
 MEM_STATIC part       192 MB

                       Distance Matrix (Angstroms)
             O (  1)   H (  2)
   H (  2)  1.256852
   H (  3)  1.256852  2.513703
 
 A cutoff of  1.0D-11 yielded     28 shell pairs
 There are       103 function pairs
 
 -------------------------------------------------------
 OpenMP Integral Computing Module                       
 Release: version 1.0, May 2013, Q-Chem Inc. Pittsburgh 
 -------------------------------------------------------
 Integral Job Info:
 Integral job number is                      11
 Integral operator is                         1
 short-range coefficients                     0
 long-range coefficients              100000000
 Omega coefficients                           0
 if combine SR and LR in K                    0
 Integral screening is                        0
 Integral computing path is                   2
 max size of driver memory is            800000
 size of driver memory is                 45569
 size of scratch memory is               800000
 max col of scratch BK array                289
 max len of scratch array in speh3           22
 max len of scratch index in speh4            8
 max int batch size is                      520
 min int batch size is                       52
 fixed nKL is                               143
 max L of basis functions is                  1
 order of int derivative is                   0
 number of shells is                          7
 number of basis is                          13
 number of cartesian basis is                13
 number of contracted shell pairs            28
 number of primitive shell pairs             79
 maxK2 (contraction) of shell pair            9
 max number of K2 of shell pair               1
 max number of CS2 of shell pair              4
 max number of PS2 of shell pair             16
 mem total for path MDJ                  504126
 -------------------------------------------------------
 Smallest overlap matrix eigenvalue = 1.61E-01
 Guess MOs from SCF MO coefficient file

 -----------------------------------------------------------------------
  General SCF calculation program by
  Eric Jon Sundstrom, Paul Horn, Yuezhi Mao, Dmitri Zuev, Alec White,
  David Stuck, Shaama M.S., Shane Yost, Joonho Lee, David Small,
  Daniel Levine, Susi Lehtola, Hugh Burton, Evgeny Epifanovsky
 -----------------------------------------------------------------------
 Hartree-Fock
 using 4 threads for integral computing
 -------------------------------------------------------
 OpenMP Integral computing Module                
 Release: version 1.0, May 2013, Q-Chem Inc. Pittsburgh 
 -------------------------------------------------------
 A unrestricted SCF calculation will be
 performed using DIIS
 SCF converges when DIIS error is below 1.0e-08
 ---------------------------------------
  Cycle       Energy         DIIS error
 ---------------------------------------
    1     -75.0555322532      3.27e-02  
    2     -75.2965525516      1.62e-02  
    3     -75.3600311440      9.31e-03  
    4     -75.3910980033      4.58e-03  
    5     -75.3987911377      2.08e-03  
    6     -75.4005381601      7.60e-04  
    7     -75.4007939475      1.71e-04  
    8     -75.4008051232      3.29e-05  
    9     -75.4008054378      9.69e-06  
   10     -75.4008054594      4.43e-06  
   11     -75.4008054667      1.10e-06  
   12     -75.4008054672      2.53e-07  
   13     -75.4008054672      2.29e-08  
   14     -75.4008054672      4.10e-09  Convergence criterion met
 ---------------------------------------
 SCF time:   CPU 0.62s  wall 0.00s 
<S^2> =          2.056082840
 SCF   energy in the final basis set =      -75.4008054672
 Total energy in the final basis set =      -75.4008054672
 
 --------------------------------------------------------------
 
                    Orbital Energies (a.u.)
 --------------------------------------------------------------
 
 Alpha MOs
 -- Occupied --
-20.575  -1.364  -0.695  -0.666  -0.579  -0.298
 -- Virtual --
  0.196   1.018   1.110   1.620   1.690   2.169   2.731
 
 Beta MOs
 -- Occupied --
-20.536  -1.198  -0.641  -0.527
 -- Virtual --
  0.137   0.159   0.299   1.133   1.218   1.723   1.834   2.181
  2.810
 --------------------------------------------------------------
 
          Ground-State Mulliken Net Atomic Charges

     Atom                 Charge (a.u.)    Spin (a.u.)
  --------------------------------------------------------
      1 O                    -0.220267       0.773267
      2 H                     0.110133       0.613366
      3 H                     0.110133       0.613366
  --------------------------------------------------------
  Sum of atomic charges =     0.000000
  Sum of spin   charges =     2.000000

 -----------------------------------------------------------------
                    Cartesian Multipole Moments
 -----------------------------------------------------------------
    Charge (ESU x 10^10)
                 0.0000
    Dipole Moment (Debye)
         X       0.0000      Y       0.0009      Z      -0.0000
       Tot       0.0009
    Quadrupole Moments (Debye-Ang)
        XX      -7.6708     XY      -0.0000     YY      -6.6453
        XZ      -0.0000     YZ       0.0000     ZZ      -6.1695
    Octopole Moments (Debye-Ang^2)
       XXX       0.0000    XXY      -0.0007    XYY       0.0000
       YYY      -0.0027    XXZ      -0.0000    XYZ      -0.0000
       YYZ      -0.0000    XZZ      -0.0000    YZZ       0.0005
       ZZZ      -0.0000
    Hexadecapole Moments (Debye-Ang^3)
      XXXX      -5.4496   XXXY      -0.0000   XXYY      -1.6637
      XYYY      -0.0000   YYYY      -4.5327   XXXZ      -0.0000
      XXYZ       0.0000   XYYZ      -0.0000   YYYZ       0.0000
      XXZZ      -5.2710   XYZZ      -0.0000   YYZZ      -5.1181
      XZZZ      -0.0000   YZZZ       0.0000   ZZZZ     -24.3820
 -----------------------------------------------------------------
 Calculating MO derivatives via CPSCF
 D1JvT checksum  = 1332 74.3417400445
 D1KAT checksum  = 2196 21.3870129624
   1         3           9      0.213670    0.136453
   2         3           9      0.043392    0.027772
   3         3           9      0.003570    0.001523
   4         4           8      0.000415    0.000194
   5         7           5      0.008303    0.005518
   6         9           3      0.002649    0.002645
   7        11           1      0.000044    0.000044
   8        12           0      0.000000    0.000000    Roots Converged
 Time for AOints: 0.1 s (CPU) 0.0 s (wall)
 ------------------------------------------------------------------------------
                     AOints        : Timing summary (seconds)
 ------------------------------------------------------------------------------
     job step          cpu (% of tot)      sys (% of tot)     wall (% of tot)
 ------------------------------------------------------------------------------
  cpscf_lag         0.5909E+00 (34.2)   0.1100E-04 (34.4)   0.1804E+00 (33.7)
  iterzp            0.5159E+00 (29.8)   0.1000E-04 (31.3)   0.1509E+00 (28.2)
  make_fx           0.0000E+00 ( 0.0)   0.0000E+00 ( 0.0)   0.0000E+00 ( 0.0)
  AOints            0.5299E-01 ( 3.1)   0.0000E+00 ( 0.0)   0.1380E-01 ( 2.6)
 ------------------------------------------------------------------------------
   Grand Totals     0.1730E+01          0.3200E-04          0.5345E+00
 ------------------------------------------------------------------------------
 Calculating analytic Hessian of the SCF energy
 Polarizability Matrix (a.u.)
            1           2           3
    1  -0.3989209   0.0000001   0.0000000
    2   0.0000001  -1.5855607   0.0000000
    3   0.0000000   0.0000000 -41.1824228
 
 Direct stationary perturbation theory relativistic correction:
 
 rels  =       0.032052095332
 relv  =      -0.104737023299
 rel2e =       0.023150475005
 E_rel =      -0.049534452962
 
 Hessian of the SCF Energy
            1           2           3           4           5           6
    1   0.0880693   0.0000000   0.0000000  -0.0440346   0.0000002  -0.0000000
    2   0.0000000   0.0866760  -0.0000000  -0.0000000  -0.0433380  -0.0000082
    3   0.0000000  -0.0000000  -0.6032458  -0.0000000  -0.0003154   0.3016229
    4  -0.0440346  -0.0000000  -0.0000000   0.0220143  -0.0000001   0.0000000
    5   0.0000002  -0.0433380  -0.0003154  -0.0000001   0.0216659   0.0001618
    6  -0.0000000  -0.0000082   0.3016229   0.0000000   0.0001618  -0.0804527
    7  -0.0440347  -0.0000000  -0.0000000   0.0220203  -0.0000001   0.0000000
    8  -0.0000002  -0.0433380   0.0003154   0.0000001   0.0216721  -0.0001536
    9  -0.0000000   0.0000082   0.3016229   0.0000000   0.0001536  -0.2211702
            7           8           9
    1  -0.0440347  -0.0000002  -0.0000000
    2  -0.0000000  -0.0433380   0.0000082
    3  -0.0000000   0.0003154   0.3016229
    4   0.0220203   0.0000001   0.0000000
    5  -0.0000001   0.0216721   0.0001536
    6   0.0000000  -0.0001536  -0.2211702
    7   0.0220144   0.0000001   0.0000000
    8   0.0000001   0.0216659  -0.0001618
    9   0.0000000  -0.0001618  -0.0804527
 Gradient time:  CPU 1.94 s  wall 0.59 s

 Mass-Weighted Hessian Matrix:


     0.005506    0.000000    0.000000   -0.010968    0.000000   -0.000000
     0.000000    0.005419   -0.000000   -0.000000   -0.010794   -0.000002
     0.000000   -0.000000   -0.037715   -0.000000   -0.000079    0.075124
    -0.010968   -0.000000   -0.000000    0.021843   -0.000000    0.000000
     0.000000   -0.010794   -0.000079   -0.000000    0.021498    0.000161
    -0.000000   -0.000002    0.075124    0.000000    0.000161   -0.079828
    -0.010968   -0.000000   -0.000000    0.021849   -0.000000    0.000000
    -0.000000   -0.010794    0.000079    0.000000    0.021504   -0.000152
    -0.000000    0.000002    0.075124    0.000000    0.000152   -0.219452


    -0.010968   -0.000000   -0.000000
    -0.000000   -0.010794    0.000002
    -0.000000    0.000079    0.075124
     0.021849    0.000000    0.000000
    -0.000000    0.021504    0.000152
     0.000000   -0.000152   -0.219452
     0.021843    0.000000    0.000000
     0.000000    0.021498   -0.000161
     0.000000   -0.000161   -0.079828

 Vectors for Translations and Rotations


     0.942382    0.000000    0.000000   -0.334538    0.000000    0.000000
     0.000000    0.942382    0.000000    0.000000    0.000000    0.000000
     0.000000    0.000000    0.942382    0.000000    0.000000    0.000288
     0.236554    0.000000    0.000000    0.666365    0.707107   -0.000000
     0.000000    0.236554    0.000000    0.000000    0.000000   -0.707107
     0.000000    0.000000    0.236554   -0.000000   -0.000000   -0.000574
     0.236554    0.000000    0.000000    0.666365   -0.707107   -0.000000
     0.000000    0.236554    0.000000    0.000000    0.000000    0.707107
     0.000000    0.000000    0.236554   -0.000000    0.000000   -0.000574

 The Projection Matrix


     0.000000    0.000000    0.000000    0.000000    0.000000   -0.000000
     0.000000    0.111915    0.000000    0.000000   -0.222924    0.000000
     0.000000    0.000000    0.111915   -0.000000    0.000204   -0.222924
     0.000000    0.000000   -0.000000   -0.000000   -0.000000    0.000000
     0.000000   -0.222924    0.000204   -0.000000    0.444043   -0.000406
    -0.000000    0.000000   -0.222924    0.000000   -0.000406    0.944042
     0.000000    0.000000   -0.000000   -0.000000   -0.000000   -0.000000
    -0.000000   -0.222924   -0.000204    0.000000    0.444042    0.000406
    -0.000000    0.000000   -0.222924   -0.000000   -0.000406   -0.055958


     0.000000   -0.000000   -0.000000
     0.000000   -0.222924    0.000000
    -0.000000   -0.000204   -0.222924
    -0.000000    0.000000   -0.000000
    -0.000000    0.444042   -0.000406
    -0.000000    0.000406   -0.055958
    -0.000000    0.000000    0.000000
     0.000000    0.444043    0.000406
     0.000000    0.000406    0.944042

 Translations and Rotations Projected Out of Hessian

 Projected Mass-Weighted Hessian Matrix:


     0.000000    0.000000   -0.000000    0.000000   -0.000000    0.000000
     0.000000    0.005419   -0.000000   -0.000000   -0.010794   -0.000002
    -0.000000   -0.000000   -0.037715    0.000000   -0.000069    0.075124
     0.000000   -0.000000    0.000000   -0.000000    0.000000   -0.000000
    -0.000000   -0.010794   -0.000069    0.000000    0.021501    0.000141
     0.000000   -0.000002    0.075124   -0.000000    0.000141   -0.079828
     0.000000    0.000000    0.000000   -0.000000    0.000000   -0.000000
     0.000000   -0.010794    0.000069   -0.000000    0.021501   -0.000133
     0.000000    0.000002    0.075124   -0.000000    0.000133   -0.219452


     0.000000    0.000000    0.000000
     0.000000   -0.010794    0.000002
     0.000000    0.000069    0.075124
    -0.000000   -0.000000   -0.000000
     0.000000    0.021501    0.000133
    -0.000000   -0.000133   -0.219452
    -0.000000   -0.000000   -0.000000
    -0.000000    0.021501   -0.000141
    -0.000000   -0.000141   -0.079828

 Eigenvectors of Proj. Mass-Weighted Hessian Matrix:


    -0.000000   -0.000000   -0.000000   -0.000000   -0.545084    0.838381
    -0.000000   -0.035126    0.439226   -0.424144   -0.000000   -0.000000
    -0.334537    0.923248    0.152763   -0.067542    0.000000    0.000000
     0.000000   -0.000000    0.000000   -0.000000    0.838381    0.545084
    -0.000609    0.096748   -0.501167   -0.350824   -0.000000   -0.000000
     0.666365    0.231847    0.037787   -0.017178   -0.000000   -0.000000
     0.000000    0.128174   -0.094384    0.820280    0.000000    0.000000
     0.000609   -0.114382    0.721673    0.137889    0.000000    0.000000
     0.666365    0.231847    0.037787   -0.017178   -0.000000    0.000000


     0.000000   -0.000000   -0.000000
     0.716962   -0.334538    0.000032
    -0.088310    0.000000   -0.000000
     0.000000   -0.000000   -0.000000
     0.415152    0.666365   -0.000063
    -0.021952   -0.000067   -0.707107
     0.549367    0.000000    0.000000
    -0.055214    0.666365   -0.000063
    -0.021952    0.000067    0.707107

 Vibrational Frequencies in atomic units
    -0.3369947346   -0.0000000000   -0.0000000000   -0.0000000000   -0.0000000000    0.0000000000
     0.0000000000    0.0484202525    0.1396243013
 **********************************************************************
 **                                                                  **
 **                       VIBRATIONAL ANALYSIS                       **
 **                       --------------------                       **
 **                                                                  **
 **        VIBRATIONAL FREQUENCIES (CM**-1) AND NORMAL MODES         **
 **     FORCE CONSTANTS (mDYN/ANGSTROM) AND REDUCED MASSES (AMU)     **
 **                  INFRARED INTENSITIES (KM/MOL)                   **
 **                                                                  **
 **********************************************************************
 

 Mode:                 1                      2                      3
 Frequency:     -2984.13                1131.15                1920.82
 Force Cnst:      5.9072                 0.8488                 2.1908
 Red. Mass:       1.1259                 1.1259                 1.0078
 IR Active:          YES                    YES                    YES
 IR Intens:    10273.596                 14.164                  0.000
 Raman Active:       YES                    YES                    YES
               X      Y      Z        X      Y      Z        X      Y      Z
 O         -0.000 -0.000 -0.089   -0.000 -0.089  0.000   -0.000  0.000 -0.000
 H          0.000 -0.001  0.704   -0.000  0.704 -0.000   -0.000 -0.000 -0.707
 H          0.000  0.001  0.704    0.000  0.704  0.000    0.000 -0.000  0.707
 TransDip   0.000  0.000 -3.246   -0.000  0.121  0.000   -0.000  0.000  0.000

 STANDARD THERMODYNAMIC QUANTITIES AT   298.15 K  AND     1.00 ATM

   This Molecule has  1 Imaginary Frequencies
   Zero point vibrational energy:        4.363 kcal/mol

   Atom    1 Element O  Has Mass   15.99491
   Atom    2 Element H  Has Mass    1.00783
   Atom    3 Element H  Has Mass    1.00783
   Molecular Mass:    18.010570 amu
   Principal axes and moments of inertia in amu*Bohr^2:
                             1           2           3
    Eigenvalues --        0.00001    11.37059    11.37060
          X               0.00000     0.00000     1.00000
          Y               0.00000     1.00000     0.00000
          Z               1.00000     0.00000    -0.00000
   Rotational Symmetry Number is   1
   The Molecule is a Symmetric Top
   Translational Enthalpy:        0.889 kcal/mol
   Rotational Enthalpy:           0.592 kcal/mol
   Vibrational Enthalpy:          4.377 kcal/mol
   gas constant (RT):             0.592 kcal/mol
   Translational Entropy:        34.608  cal/mol.K
   Rotational Entropy:            9.275  cal/mol.K
   Vibrational Entropy:           0.057  cal/mol.K

   Total Enthalpy:                6.451 kcal/mol
   Total Entropy:                43.940  cal/mol.K
Archival summary:
1\1\comet-ln2.sdsc.edu\FREQ\HF\3-21G\12(3)\jjakowsk\ThuSep2006:45:342018ThuSep2006:45:342018\0\\#,FREQ,HF,3-21G,\\0,3\O\H,1,1.25685\H,1,1.25685,2,179.895\\HF=-75.4008055\\@

 Total job time:  1.16s(wall), 3.27s(cpu) 
 Thu Sep 20 06:45:34 2018

        *************************************************************
        *                                                           *
        *  Thank you very much for using Q-Chem.  Have a nice day.  *
        *                                                           *
        *************************************************************


0 sent ACK to 0 
now end server 0 ... 
cleanup process ... done
