
Running Job 1 of 2 water-opt.inp
qchem water-opt.inp_7514.0 ./qchem7514/ 1
/opt/qchem/bin/mpi/mpirun_qchem -machinefile /opt/qchem/bin/mpi/machines -np 1 /opt/qchem/exe/qcprog.exe water-opt.inp_7514.0 ./qchem7514/

Process 0 of 1 is on comet-ln2.sdsc.edu - thread support 0
initial socket setup ...start
initial socket setup ...done 
now start server 0 ... 
Check license passed

                  Welcome to Q-Chem
     A Quantum Leap Into The Future Of Chemistry


 Q-Chem 5.1, Q-Chem, Inc., Pleasanton, CA (2018)

 Yihan Shao,  Zhengting Gan,  E. Epifanovsky,  A. T. B. Gilbert,  M. Wormit,  
 J. Kussmann,  A. W. Lange,  A. Behn,  Jia Deng,  Xintian Feng,  D. Ghosh,  
 M. Goldey,  P. R. Horn,  L. D. Jacobson,  I. Kaliman,  T. Kus,  A. Landau,  
 Jie Liu,  E. I. Proynov,  R. M. Richard,  R. P. Steele,  E. J. Sundstrom,  
 H. L. Woodcock III,  P. M. Zimmerman,  D. Zuev,  B. Albrecht,  E. Alguire,  
 S. A. Baeppler,  D. Barton,  Z. Benda,  Y. A. Bernard,  E. J. Berquist,  
 K. B. Bravaya,  H. Burton,  D. Casanova,  Chun-Min Chang,  Yunqing Chen,  
 A. Chien,  K. D. Closser,  M. P. Coons,  S. Coriani,  S. Dasgupta,  
 A. L. Dempwolff,  M. Diedenhofen,  Hainam Do,  R. G. Edgar,  Po-Tung Fang,  
 S. Faraji,  S. Fatehi,  Qingguo Feng,  K. D. Fenk,  J. Fosso-Tande,  
 Qinghui Ge,  A. Ghysels,  G. Gidofalvi,  J. Gomes,  J. Gonthier,  A. Gunina,  
 D. Hait,  M. W. D. Hanson-Heine,  P. H. P. Harbach,  A. W. Hauser,  
 J. E. Herr,  E. G. Hohenstein,  Z. C. Holden,  Kerwin Hui,  B. C. Huynh,  
 T.-C. Jagau,  Hyunjun Ji,  B. Kaduk,  K. Khistyaev,  Jaehoon Kim,  
 P. Klunzinger,  K. Koh,  D. Kosenkov,  L. Koulias,  T. Kowalczyk,  
 C. M. Krauter,  A. Kunitsa,  Ka Un Lao,  A. Laurent,  K. V. Lawler,  
 Joonho Lee,  D. Lefrancois,  S. Lehtola,  D. S. Levine,  Yi-Pei Li,  
 You-Sheng Lin,  Fenglai Liu,  E. Livshits,  A. Luenser,  P. Manohar,  
 E. Mansoor,  S. F. Manzer,  Shan-Ping Mao,  Yuezhi Mao,  N. Mardirossian,  
 A. V. Marenich,  T. Markovich,  L. A. Martinez-Martinez,  S. A. Maurer,  
 N. J. Mayhall,  S. C. McKenzie,  J.-M. Mewes,  A. F. Morrison,  
 J. W. Mullinax,  K. Nanda,  T. S. Nguyen-Beck,  R. Olivares-Amaya,  
 J. A. Parkhill,  T. M. Perrine,  F. Plasser,  P. Pokhilko,  S. Prager,  
 A. Prociuk,  E. Ramos,  D. R. Rehn,  F. Rob,  M. Schneider,  N. Sergueev,  
 S. M. Sharada,  S. Sharma,  D. W. Small,  T. Stauch,  T. Stein,  
 Yu-Chuan Su,  A. J. W. Thom,  A. Tkatchenko,  T. Tsuchimochi,  N. M. Tubman,  
 L. Vogt,  M. L. Vidal,  O. Vydrov,  M. A. Watson,  J. Wenzel,  
 M. de Wergifosse,  T. A. Wesolowski,  A. White,  J. Witte,  A. Yamada,  
 Jun Yang,  K. Yao,  S. Yeganeh,  S. R. Yost,  Zhi-Qiang You,  A. Zech,  
 Igor Ying Zhang,  Xing Zhang,  Yan Zhao,  Ying Zhu,  B. R. Brooks,  
 G. K. L. Chan,  C. J. Cramer,  M. S. Gordon,  W. J. Hehre,  A. Klamt,  
 M. W. Schmidt,  C. D. Sherrill,  D. G. Truhlar,  A. Aspuru-Guzik,  R. Baer,  
 A. T. Bell,  N. A. Besley,  Jeng-Da Chai,  A. E. DePrince, III,  
 R. A. DiStasio Jr.,  A. Dreuw,  B. D. Dunietz,  T. R. Furlani,  
 Chao-Ping Hsu,  Yousung Jung,  Jing Kong,  D. S. Lambrecht,  WanZhen Liang,  
 C. Ochsenfeld,  V. A. Rassolov,  L. V. Slipchenko,  J. E. Subotnik,  
 T. Van Voorhis,  J. M. Herbert,  A. I. Krylov,  P. M. W. Gill,  M. Head-Gordon

 Contributors to earlier versions of Q-Chem not listed above: 
 R. D. Adamson,  B. Austin,  J. Baker,  G. J. O. Beran,  K. Brandhorst,  
 S. T. Brown,  E. F. C. Byrd,  A. K. Chakraborty,  C.-L. Cheng,  
 Siu Hung Chien,  D. M. Chipman,  D. L. Crittenden,  H. Dachsel,  
 R. J. Doerksen,  A. D. Dutoi,  L. Fusti-Molnar,  W. A. Goddard III,  
 A. Golubeva-Zadorozhnaya,  S. R. Gwaltney,  G. Hawkins,  A. Heyden,  
 S. Hirata,  G. Kedziora,  F. J. Keil,  C. Kelley,  Jihan Kim,  R. A. King,  
 R. Z. Khaliullin,  P. P. Korambath,  W. Kurlancheek,  A. M. Lee,  M. S. Lee,  
 S. V. Levchenko,  Ching Yeh Lin,  D. Liotard,  R. C. Lochan,  I. Lotan,  
 P. E. Maslen,  N. Nair,  D. P. O'Neill,  D. Neuhauser,  E. Neuscamman,  
 C. M. Oana,  R. Olson,  B. Peters,  R. Peverati,  P. A. Pieniazek,  
 Y. M. Rhee,  J. Ritchie,  M. A. Rohrdanz,  E. Rosta,  N. J. Russ,  
 H. F. Schaefer III,  N. E. Schultz,  N. Shenvi,  A. C. Simmonett,  A. Sodt,  
 D. Stuck,  K. S. Thanthiriwatte,  V. Vanovschi,  Tao Wang,  A. Warshel,  
 C. F. Williams,  Q. Wu,  X. Xu,  W. Zhang

 Please cite Q-Chem as follows:
 Y. Shao et al., Mol. Phys. 113, 184-215 (2015)
 DOI: 10.1080/00268976.2014.952696

 Q-Chem 5.1.1 for Intel X86 EM64T Linux

 Parts of Q-Chem use Armadillo 8.300.2 (Tropical Shenanigans).
 http://arma.sourceforge.net/

 Q-Chem begins on Fri Sep 21 16:03:39 2018  

Host: 
0

     Scratch files written to ./qchem7514//
 Aug318 |scratch|qcdevops|jenkins|workspace|build_RNUM    
 Parallel job on  1  processors
Processing $rem in /opt/qchem/config/preferences.
 MEM_TOTAL  4000 
Input Ideriv = 2
Curr. Ideriv = -1
Max.  Ideriv = 2

Checking the input file for inconsistencies... 	...done.

--------------------------------------------------------------
User input:
--------------------------------------------------------------

$molecule
0  1
O  0.0   0.0 0.0
H  1.0   1.0 0.0
H -1.0   1.0 0.0
$end

$rem
BASIS    3-21G
JOBTYPE  opt
METHOD   hf
$end

--------------------------------------------------------------
 ----------------------------------------------------------------
             Standard Nuclear Orientation (Angstroms)
    I     Atom           X                Y                Z
 ----------------------------------------------------------------
    1      O       0.0000000000     0.0000000000     0.2000000000
    2      H      -1.0000000000    -0.0000000000    -0.8000000000
    3      H       1.0000000000     0.0000000000    -0.8000000000
 ----------------------------------------------------------------
 Molecular Point Group                 C2v   NOp =  4
 Largest Abelian Subgroup              C2v   NOp =  4
 Nuclear Repulsion Energy =     6.2515453127 hartrees
 There are        5 alpha and        5 beta electrons
 Requested basis set is 3-21G
 There are 7 shells and 13 basis functions

 Total QAlloc Memory Limit   4000 MB
 Mega-Array Size       188 MB
 MEM_STATIC part       192 MB
 A cutoff of  1.0D-11 yielded     28 shell pairs
 There are       103 function pairs
 
 -------------------------------------------------------
 OpenMP Integral Computing Module                       
 Release: version 1.0, May 2013, Q-Chem Inc. Pittsburgh 
 -------------------------------------------------------
 Integral Job Info:
 Integral job number is                      11
 Integral operator is                         1
 short-range coefficients                     0
 long-range coefficients              100000000
 Omega coefficients                           0
 if combine SR and LR in K                    0
 Integral screening is                        0
 Integral computing path is                   2
 max size of driver memory is            800000
 size of driver memory is                 45569
 size of scratch memory is               800000
 max col of scratch BK array                289
 max len of scratch array in speh3           22
 max len of scratch index in speh4            8
 max int batch size is                      520
 min int batch size is                       52
 fixed nKL is                               143
 max L of basis functions is                  1
 order of int derivative is                   0
 number of shells is                          7
 number of basis is                          13
 number of cartesian basis is                13
 number of contracted shell pairs            28
 number of primitive shell pairs             77
 maxK2 (contraction) of shell pair            9
 max number of K2 of shell pair               1
 max number of CS2 of shell pair              5
 max number of PS2 of shell pair             15
 mem total for path MDJ                  504126
 -------------------------------------------------------
 Smallest overlap matrix eigenvalue = 1.81E-01

 Scale SEOQF with 1.000000e+00/1.000000e+00/1.000000e+00

 Standard Electronic Orientation quadrupole field applied
 Nucleus-field energy     =    -0.0000000010 hartrees
 Guess from superposition of atomic densities
 Warning:  Energy on first SCF cycle will be non-variational
 SAD guess density has 10.000000 electrons

 -----------------------------------------------------------------------
  General SCF calculation program by
  Eric Jon Sundstrom, Paul Horn, Yuezhi Mao, Dmitri Zuev, Alec White,
  David Stuck, Shaama M.S., Shane Yost, Joonho Lee, David Small,
  Daniel Levine, Susi Lehtola, Hugh Burton, Evgeny Epifanovsky
 -----------------------------------------------------------------------
 Hartree-Fock
 using 4 threads for integral computing
 -------------------------------------------------------
 OpenMP Integral computing Module                
 Release: version 1.0, May 2013, Q-Chem Inc. Pittsburgh 
 -------------------------------------------------------
 A restricted SCF calculation will be
 performed using DIIS
 SCF converges when DIIS error is below 1.0e-08
 ---------------------------------------
  Cycle       Energy         DIIS error
 ---------------------------------------
    1     -74.8425287364      8.99e-02  
    2     -75.3364159446      5.38e-02  
    3     -75.4060503836      3.58e-02  
    4     -75.4217210923      7.42e-03  
    5     -75.4227253154      5.99e-04  
    6     -75.4227355916      6.39e-05  
    7     -75.4227357170      1.49e-05  
    8     -75.4227357420      7.54e-06  
    9     -75.4227357513      6.70e-07  
   10     -75.4227357514      3.84e-08  
   11     -75.4227357514      1.00e-09  Convergence criterion met
 ---------------------------------------
 SCF time:   CPU 0.67s  wall 1.00s 
 SCF   energy in the final basis set =      -75.4227357514
 Total energy in the final basis set =      -75.4227357514
 
 --------------------------------------------------------------
             Orbital Energies (a.u.) and Symmetries
 --------------------------------------------------------------
 
 Alpha MOs, Restricted
 -- Occupied --                  
-20.521  -1.216  -0.506  -0.493  -0.493
  1 A1    2 A1    1 B1    3 A1    1 B2                                         
 -- Virtual --                   
  0.123   0.160   1.094   1.137   1.760   1.912   1.927   2.767
  4 A1    2 B1    5 A1    3 B1    2 B2    6 A1    4 B1    7 A1                 
 
 Beta MOs, Restricted
 -- Occupied --                  
-20.521  -1.216  -0.506  -0.493  -0.493
  1 A1    2 A1    1 B1    3 A1    1 B2                                         
 -- Virtual --                   
  0.123   0.160   1.094   1.137   1.760   1.912   1.927   2.767
  4 A1    2 B1    5 A1    3 B1    2 B2    6 A1    4 B1    7 A1                 
 --------------------------------------------------------------
 
          Ground-State Mulliken Net Atomic Charges

     Atom                 Charge (a.u.)
  ----------------------------------------
      1 O                    -0.390115
      2 H                     0.195057
      3 H                     0.195057
  ----------------------------------------
  Sum of atomic charges =    -0.000000

 -----------------------------------------------------------------
                    Cartesian Multipole Moments
 -----------------------------------------------------------------
    Charge (ESU x 10^10)
                -0.0000
    Dipole Moment (Debye)
         X      -0.0000      Y       0.0000      Z      -2.2867
       Tot       2.2867
    Quadrupole Moments (Debye-Ang)
        XX      -4.6326     XY      -0.0000     YY      -7.6266
        XZ       0.0000     YZ       0.0000     ZZ      -5.4260
    Octopole Moments (Debye-Ang^2)
       XXX      -0.0000    XXY      -0.0000    XYY      -0.0000
       YYY       0.0000    XXZ      -1.8363    XYZ      -0.0000
       YYZ       0.2531    XZZ      -0.0000    YZZ       0.0000
       ZZZ      -0.4681
    Hexadecapole Moments (Debye-Ang^3)
      XXXX     -11.9608   XXXY      -0.0000   XXYY      -3.3659
      XYYY      -0.0000   YYYY      -5.1924   XXXZ       0.0000
      XXYZ       0.0000   XYYZ       0.0000   YYYZ      -0.0000
      XXZZ      -2.4492   XYZZ      -0.0000   YYZZ      -2.9141
      XZZZ       0.0000   YZZZ      -0.0000   ZZZZ     -10.7004
 -----------------------------------------------------------------
 Calculating analytic gradient of the SCF energy
 Gradient of SCF Energy
            1           2           3
    1   0.0000000  -0.0879012   0.0879012
    2   0.0000000  -0.0000000   0.0000000
    3   0.1870920  -0.0935460  -0.0935460
 Max gradient component =       1.871E-01
 RMS gradient           =       8.690E-02
 Gradient time:  CPU 0.70 s  wall 0.32 s
 Geometry Optimization Parameters
   NAtoms,    NIC,     NZ,  NCons,   NDum,   NFix, NCnnct, MaxDiis
        3       9       0       0       0       0       0       0


** GEOMETRY OPTIMIZATION IN DELOCALIZED INTERNAL COORDINATES **
   Searching for a Minimum

   Optimization Cycle:   1

                       Coordinates (Angstroms)
     ATOM                X               Y               Z
      1  O         0.0000000000    0.0000000000    0.2000000000
      2  H        -1.0000000000    0.0000000000   -0.8000000000
      3  H         1.0000000000    0.0000000000   -0.8000000000
   Point Group: c2v   Number of degrees of freedom:     2


   Energy is    -75.422735751


 Attempting to Generate Delocalized Internal Coordinates

  2 Hessian modes will be used to form the next step
  Hessian Eigenvalues:
     0.138777    0.160000

 Minimum Search - Taking Simple RFO Step
 Searching for Lamda that Minimizes Along All modes
 Value Taken    Lamda =  -0.12514526
 Calculated Step too Large.  Step scaled by  0.435718
 Step Taken.  Stepsize is  0.300000

                             Maximum     Tolerance    Cnvgd?
         Gradient           0.175736      0.000300      NO
         Displacement       0.289719      0.001200      NO
         Energy change     *********      0.000001      NO


 New Cartesian Coordinates Obtained by Inverse Iteration

 Displacement from previous Coordinates is:  0.233964
 ----------------------------------------------------------------
             Standard Nuclear Orientation (Angstroms)
    I     Atom           X                Y                Z
 ----------------------------------------------------------------
    1      O       0.0000000000     0.0000000000     0.1421374723
    2      H      -0.9282139691     0.0000000000    -0.7710687362
    3      H       0.9282139691     0.0000000000    -0.7710687362
 ----------------------------------------------------------------
 Molecular Point Group                 C2v   NOp =  4
 Largest Abelian Subgroup              C2v   NOp =  4
 Nuclear Repulsion Energy =     6.7873780996 hartrees
 There are        5 alpha and        5 beta electrons
 Applying Cartesian multipole field
    Component          Value
    ---------          -----
     (2,0,0)        1.00000E-10
     (0,2,0)        2.00000E-10
     (0,0,2)       -3.00000E-10
 Nucleus-field energy     =    -0.0000000008 hartrees
 Requested basis set is 3-21G
 There are 7 shells and 13 basis functions
 A cutoff of  1.0D-11 yielded     28 shell pairs
 There are       103 function pairs
 Smallest overlap matrix eigenvalue = 1.69E-01
 Guess MOs from SCF MO coefficient file

 -----------------------------------------------------------------------
  General SCF calculation program by
  Eric Jon Sundstrom, Paul Horn, Yuezhi Mao, Dmitri Zuev, Alec White,
  David Stuck, Shaama M.S., Shane Yost, Joonho Lee, David Small,
  Daniel Levine, Susi Lehtola, Hugh Burton, Evgeny Epifanovsky
 -----------------------------------------------------------------------
 Hartree-Fock
 using 4 threads for integral computing
 -------------------------------------------------------
 OpenMP Integral computing Module                
 Release: version 1.0, May 2013, Q-Chem Inc. Pittsburgh 
 -------------------------------------------------------
 A restricted SCF calculation will be
 performed using DIIS
 SCF converges when DIIS error is below 1.0e-08
 ---------------------------------------
  Cycle       Energy         DIIS error
 ---------------------------------------
    1     -75.4738408541      1.01e-02  
    2     -75.4760188760      5.05e-03  
    3     -75.4763830917      1.70e-03  
    4     -75.4764903895      5.43e-04  
    5     -75.4765153943      1.85e-04  
    6     -75.4765196005      2.90e-05  
    7     -75.4765196495      2.06e-06  
    8     -75.4765196496      1.08e-07  
    9     -75.4765196496      7.60e-09  Convergence criterion met
 ---------------------------------------
 SCF time:   CPU 0.39s  wall 0.00s 
 SCF   energy in the final basis set =      -75.4765196496
 Total energy in the final basis set =      -75.4765196496
 
 --------------------------------------------------------------
             Orbital Energies (a.u.) and Symmetries
 --------------------------------------------------------------
 
 Alpha MOs, Restricted
 -- Occupied --                  
-20.505  -1.232  -0.534  -0.512  -0.489
  1 A1    2 A1    1 B1    3 A1    1 B2                                         
 -- Virtual --                   
  0.154   0.206   1.108   1.114   1.764   1.931   1.956   2.845
  4 A1    2 B1    5 A1    3 B1    2 B2    6 A1    4 B1    7 A1                 
 
 Beta MOs, Restricted
 -- Occupied --                  
-20.505  -1.232  -0.534  -0.512  -0.489
  1 A1    2 A1    1 B1    3 A1    1 B2                                         
 -- Virtual --                   
  0.154   0.206   1.108   1.114   1.764   1.931   1.956   2.845
  4 A1    2 B1    5 A1    3 B1    2 B2    6 A1    4 B1    7 A1                 
 --------------------------------------------------------------
 
          Ground-State Mulliken Net Atomic Charges

     Atom                 Charge (a.u.)
  ----------------------------------------
      1 O                    -0.469096
      2 H                     0.234548
      3 H                     0.234548
  ----------------------------------------
  Sum of atomic charges =    -0.000000

 -----------------------------------------------------------------
                    Cartesian Multipole Moments
 -----------------------------------------------------------------
    Charge (ESU x 10^10)
                -0.0000
    Dipole Moment (Debye)
         X       0.0000      Y      -0.0000      Z      -2.4028
       Tot       2.4028
    Quadrupole Moments (Debye-Ang)
        XX      -4.6347     XY      -0.0000     YY      -7.4756
        XZ      -0.0000     YZ      -0.0000     ZZ      -5.2937
    Octopole Moments (Debye-Ang^2)
       XXX       0.0000    XXY      -0.0000    XYY       0.0000
       YYY      -0.0000    XXZ      -1.4716    XYZ      -0.0000
       YYZ       0.3935    XZZ       0.0000    YZZ      -0.0000
       ZZZ      -0.1057
    Hexadecapole Moments (Debye-Ang^3)
      XXXX     -10.1633   XXXY       0.0000   XXYY      -2.9326
      XYYY       0.0000   YYYY      -4.9860   XXXZ      -0.0000
      XXYZ      -0.0000   XYYZ      -0.0000   YYYZ      -0.0000
      XXZZ      -2.0512   XYZZ       0.0000   YYZZ      -2.5766
      XZZZ      -0.0000   YZZZ      -0.0000   ZZZZ      -9.0512
 -----------------------------------------------------------------
 Calculating analytic gradient of the SCF energy
 Gradient of SCF Energy
            1           2           3
    1   0.0000000  -0.0830302   0.0830302
    2   0.0000000  -0.0000000  -0.0000000
    3   0.1824708  -0.0912354  -0.0912354
 Max gradient component =       1.825E-01
 RMS gradient           =       8.415E-02
 Gradient time:  CPU 0.14 s  wall 0.04 s
 Geometry Optimization Parameters
   NAtoms,    NIC,     NZ,  NCons,   NDum,   NFix, NCnnct, MaxDiis
        3       9       0       0       0       0       0       0

 Cartesian Hessian Update
 Hessian Updated using BFGS Update


** GEOMETRY OPTIMIZATION IN DELOCALIZED INTERNAL COORDINATES **
   Searching for a Minimum

   Optimization Cycle:   2

                       Coordinates (Angstroms)
     ATOM                X               Y               Z
      1  O         0.0000000000    0.0000000000    0.1421374723
      2  H        -0.9282139691    0.0000000000   -0.7710687362
      3  H         0.9282139691    0.0000000000   -0.7710687362
   Point Group: c2v   Number of degrees of freedom:     2


   Energy is    -75.476519650

 Hessian Updated using BFGS Update

  2 Hessian modes will be used to form the next step
  Hessian Eigenvalues:
     0.020140    0.182988

 Minimum Search - Taking Simple RFO Step
 Searching for Lamda that Minimizes Along All modes
 Value Taken    Lamda =  -0.16486626
 Calculated Step too Large.  Step scaled by  0.318134
 Step Taken.  Stepsize is  0.300000

                             Maximum     Tolerance    Cnvgd?
         Gradient           0.170737      0.000300      NO
         Displacement       0.295266      0.001200      NO
         Energy change     -0.053784      0.000001      NO


 New Cartesian Coordinates Obtained by Inverse Iteration

 Displacement from previous Coordinates is:  0.222180
 ----------------------------------------------------------------
             Standard Nuclear Orientation (Angstroms)
    I     Atom           X                Y                Z
 ----------------------------------------------------------------
    1      O       0.0000000000     0.0000000000     0.0782747443
    2      H      -0.8661427274     0.0000000000    -0.7391373721
    3      H       0.8661427274     0.0000000000    -0.7391373721
 ----------------------------------------------------------------
 Molecular Point Group                 C2v   NOp =  4
 Largest Abelian Subgroup              C2v   NOp =  4
 Nuclear Repulsion Energy =     7.4147816792 hartrees
 There are        5 alpha and        5 beta electrons
 Applying Cartesian multipole field
    Component          Value
    ---------          -----
     (2,0,0)        1.00000E-10
     (0,2,0)        2.00000E-10
     (0,0,2)       -3.00000E-10
 Nucleus-field energy     =    -0.0000000007 hartrees
 Requested basis set is 3-21G
 There are 7 shells and 13 basis functions
 A cutoff of  1.0D-11 yielded     28 shell pairs
 There are       103 function pairs
 Smallest overlap matrix eigenvalue = 1.53E-01
 Guess MOs from SCF MO coefficient file

 -----------------------------------------------------------------------
  General SCF calculation program by
  Eric Jon Sundstrom, Paul Horn, Yuezhi Mao, Dmitri Zuev, Alec White,
  David Stuck, Shaama M.S., Shane Yost, Joonho Lee, David Small,
  Daniel Levine, Susi Lehtola, Hugh Burton, Evgeny Epifanovsky
 -----------------------------------------------------------------------
 Hartree-Fock
 using 4 threads for integral computing
 -------------------------------------------------------
 OpenMP Integral computing Module                
 Release: version 1.0, May 2013, Q-Chem Inc. Pittsburgh 
 -------------------------------------------------------
 A restricted SCF calculation will be
 performed using DIIS
 SCF converges when DIIS error is below 1.0e-08
 ---------------------------------------
  Cycle       Energy         DIIS error
 ---------------------------------------
    1     -75.5221063557      1.24e-02  
    2     -75.5256186758      5.74e-03  
    3     -75.5261160679      1.87e-03  
    4     -75.5262493398      5.84e-04  
    5     -75.5262739893      1.61e-04  
    6     -75.5262764754      2.64e-05  
    7     -75.5262765071      1.87e-06  
    8     -75.5262765072      1.16e-07  
    9     -75.5262765072      8.37e-09  Convergence criterion met
 ---------------------------------------
 SCF time:   CPU 0.40s  wall 0.00s 
 SCF   energy in the final basis set =      -75.5262765072
 Total energy in the final basis set =      -75.5262765072
 
 --------------------------------------------------------------
             Orbital Energies (a.u.) and Symmetries
 --------------------------------------------------------------
 
 Alpha MOs, Restricted
 -- Occupied --                  
-20.485  -1.254  -0.570  -0.526  -0.485
  1 A1    2 A1    1 B1    3 A1    1 B2                                         
 -- Virtual --                   
  0.188   0.257   1.106   1.144   1.769   1.932   1.982   2.940
  4 A1    2 B1    3 B1    5 A1    2 B2    6 A1    4 B1    7 A1                 
 
 Beta MOs, Restricted
 -- Occupied --                  
-20.485  -1.254  -0.570  -0.526  -0.485
  1 A1    2 A1    1 B1    3 A1    1 B2                                         
 -- Virtual --                   
  0.188   0.257   1.106   1.144   1.769   1.932   1.982   2.940
  4 A1    2 B1    3 B1    5 A1    2 B2    6 A1    4 B1    7 A1                 
 --------------------------------------------------------------
 
          Ground-State Mulliken Net Atomic Charges

     Atom                 Charge (a.u.)
  ----------------------------------------
      1 O                    -0.558044
      2 H                     0.279022
      3 H                     0.279022
  ----------------------------------------
  Sum of atomic charges =     0.000000

 -----------------------------------------------------------------
                    Cartesian Multipole Moments
 -----------------------------------------------------------------
    Charge (ESU x 10^10)
                 0.0000
    Dipole Moment (Debye)
         X       0.0000      Y       0.0000      Z      -2.4879
       Tot       2.4879
    Quadrupole Moments (Debye-Ang)
        XX      -4.5428     XY       0.0000     YY      -7.2937
        XZ      -0.0000     YZ      -0.0000     ZZ      -5.1507
    Octopole Moments (Debye-Ang^2)
       XXX       0.0000    XXY       0.0000    XYY       0.0000
       YYY       0.0000    XXZ      -1.1288    XYZ       0.0000
       YYZ       0.5550    XZZ       0.0000    YZZ       0.0000
       ZZZ       0.3668
    Hexadecapole Moments (Debye-Ang^3)
      XXXX      -8.4945   XXXY      -0.0000   XXYY      -2.5419
      XYYY      -0.0000   YYYY      -4.7471   XXXZ      -0.0000
      XXYZ      -0.0000   XYYZ      -0.0000   YYYZ      -0.0000
      XXZZ      -1.6949   XYZZ      -0.0000   YYZZ      -2.2592
      XZZZ      -0.0000   YZZZ      -0.0000   ZZZZ      -7.5711
 -----------------------------------------------------------------
 Calculating analytic gradient of the SCF energy
 Gradient of SCF Energy
            1           2           3
    1   0.0000000  -0.0720892   0.0720892
    2  -0.0000000   0.0000000   0.0000000
    3   0.1609026  -0.0804513  -0.0804513
 Max gradient component =       1.609E-01
 RMS gradient           =       7.396E-02
 Gradient time:  CPU 0.14 s  wall 0.04 s
 Geometry Optimization Parameters
   NAtoms,    NIC,     NZ,  NCons,   NDum,   NFix, NCnnct, MaxDiis
        3       9       0       0       0       0       0       0

 Cartesian Hessian Update
 Hessian Updated using BFGS Update


** GEOMETRY OPTIMIZATION IN DELOCALIZED INTERNAL COORDINATES **
   Searching for a Minimum

   Optimization Cycle:   3

                       Coordinates (Angstroms)
     ATOM                X               Y               Z
      1  O         0.0000000000    0.0000000000    0.0782747443
      2  H        -0.8661427274    0.0000000000   -0.7391373721
      3  H         0.8661427274    0.0000000000   -0.7391373721
   Point Group: c2v   Number of degrees of freedom:     2


   Energy is    -75.526276507

 Hessian Updated using BFGS Update

  2 Hessian modes will be used to form the next step
  Hessian Eigenvalues:
     0.066801    0.190307

 Minimum Search - Taking Simple RFO Step
 Searching for Lamda that Minimizes Along All modes
 Value Taken    Lamda =  -0.12273760
 Calculated Step too Large.  Step scaled by  0.374393
 Step Taken.  Stepsize is  0.300000

                             Maximum     Tolerance    Cnvgd?
         Gradient           0.150988      0.000300      NO
         Displacement       0.298159      0.001200      NO
         Energy change     -0.049757      0.000001      NO


 New Cartesian Coordinates Obtained by Inverse Iteration

 Displacement from previous Coordinates is:  0.217672
 ----------------------------------------------------------------
             Standard Nuclear Orientation (Angstroms)
    I     Atom           X                Y                Z
 ----------------------------------------------------------------
    1      O       0.0000000000     0.0000000000     0.0116797747
    2      H      -0.8086285057     0.0000000000    -0.7058398874
    3      H       0.8086285057     0.0000000000    -0.7058398874
 ----------------------------------------------------------------
 Molecular Point Group                 C2v   NOp =  4
 Largest Abelian Subgroup              C2v   NOp =  4
 Nuclear Repulsion Energy =     8.1591023162 hartrees
 There are        5 alpha and        5 beta electrons
 Applying Cartesian multipole field
    Component          Value
    ---------          -----
     (2,0,0)        1.00000E-10
     (0,2,0)        2.00000E-10
     (0,0,2)       -3.00000E-10
 Nucleus-field energy     =    -0.0000000006 hartrees
 Requested basis set is 3-21G
 There are 7 shells and 13 basis functions
 A cutoff of  1.0D-11 yielded     28 shell pairs
 There are       103 function pairs
 Smallest overlap matrix eigenvalue = 1.32E-01
 Guess MOs from SCF MO coefficient file

 -----------------------------------------------------------------------
  General SCF calculation program by
  Eric Jon Sundstrom, Paul Horn, Yuezhi Mao, Dmitri Zuev, Alec White,
  David Stuck, Shaama M.S., Shane Yost, Joonho Lee, David Small,
  Daniel Levine, Susi Lehtola, Hugh Burton, Evgeny Epifanovsky
 -----------------------------------------------------------------------
 Hartree-Fock
 using 4 threads for integral computing
 -------------------------------------------------------
 OpenMP Integral computing Module                
 Release: version 1.0, May 2013, Q-Chem Inc. Pittsburgh 
 -------------------------------------------------------
 A restricted SCF calculation will be
 performed using DIIS
 SCF converges when DIIS error is below 1.0e-08
 ---------------------------------------
  Cycle       Energy         DIIS error
 ---------------------------------------
    1     -75.5598359886      1.53e-02  
    2     -75.5651948453      6.46e-03  
    3     -75.5658482363      2.03e-03  
    4     -75.5659996522      5.80e-04  
    5     -75.5660202089      1.29e-04  
    6     -75.5660215172      2.33e-05  
    7     -75.5660215393      1.55e-06  
    8     -75.5660215394      1.15e-07  
    9     -75.5660215394      7.62e-09  Convergence criterion met
 ---------------------------------------
 SCF time:   CPU 0.40s  wall 1.00s 
 SCF   energy in the final basis set =      -75.5660215394
 Total energy in the final basis set =      -75.5660215394
 
 --------------------------------------------------------------
             Orbital Energies (a.u.) and Symmetries
 --------------------------------------------------------------
 
 Alpha MOs, Restricted
 -- Occupied --                  
-20.461  -1.285  -0.615  -0.536  -0.482
  1 A1    2 A1    1 B1    3 A1    1 B2                                         
 -- Virtual --                   
  0.223   0.308   1.121   1.208   1.775   1.915   1.999   3.035
  4 A1    2 B1    3 B1    5 A1    2 B2    6 A1    4 B1    7 A1                 
 
 Beta MOs, Restricted
 -- Occupied --                  
-20.461  -1.285  -0.615  -0.536  -0.482
  1 A1    2 A1    1 B1    3 A1    1 B2                                         
 -- Virtual --                   
  0.223   0.308   1.121   1.208   1.775   1.915   1.999   3.035
  4 A1    2 B1    3 B1    5 A1    2 B2    6 A1    4 B1    7 A1                 
 --------------------------------------------------------------
 
          Ground-State Mulliken Net Atomic Charges

     Atom                 Charge (a.u.)
  ----------------------------------------
      1 O                    -0.646327
      2 H                     0.323163
      3 H                     0.323163
  ----------------------------------------
  Sum of atomic charges =    -0.000000

 -----------------------------------------------------------------
                    Cartesian Multipole Moments
 -----------------------------------------------------------------
    Charge (ESU x 10^10)
                -0.0000
    Dipole Moment (Debye)
         X      -0.0000      Y      -0.0000      Z      -2.5219
       Tot       2.5219
    Quadrupole Moments (Debye-Ang)
        XX      -4.4011     XY      -0.0000     YY      -7.0839
        XZ       0.0000     YZ      -0.0000     ZZ      -5.0007
    Octopole Moments (Debye-Ang^2)
       XXX      -0.0000    XXY       0.0000    XYY      -0.0000
       YYY      -0.0000    XXZ      -0.7874    XYZ       0.0000
       YYZ       0.7294    XZZ      -0.0000    YZZ       0.0000
       ZZZ       0.9257
    Hexadecapole Moments (Debye-Ang^3)
      XXXX      -6.9652   XXXY      -0.0000   XXYY      -2.1822
      XYYY      -0.0000   YYYY      -4.4855   XXXZ       0.0000
      XXYZ      -0.0000   XYYZ      -0.0000   YYYZ      -0.0000
      XXZZ      -1.4072   XYZZ      -0.0000   YYZZ      -1.9874
      XZZZ       0.0000   YZZZ      -0.0000   ZZZZ      -6.3916
 -----------------------------------------------------------------
 Calculating analytic gradient of the SCF energy
 Gradient of SCF Energy
            1           2           3
    1  -0.0000000  -0.0475966   0.0475966
    2   0.0000000  -0.0000000  -0.0000000
    3   0.1130436  -0.0565218  -0.0565218
 Max gradient component =       1.130E-01
 RMS gradient           =       5.132E-02
 Gradient time:  CPU 0.14 s  wall 0.04 s
 Geometry Optimization Parameters
   NAtoms,    NIC,     NZ,  NCons,   NDum,   NFix, NCnnct, MaxDiis
        3       9       0       0       0       0       0       0

 Cartesian Hessian Update
 Hessian Updated using BFGS Update


** GEOMETRY OPTIMIZATION IN DELOCALIZED INTERNAL COORDINATES **
   Searching for a Minimum

   Optimization Cycle:   4

                       Coordinates (Angstroms)
     ATOM                X               Y               Z
      1  O         0.0000000000    0.0000000000    0.0116797747
      2  H        -0.8086285057    0.0000000000   -0.7058398874
      3  H         0.8086285057    0.0000000000   -0.7058398874
   Point Group: c2v   Number of degrees of freedom:     2


   Energy is    -75.566021539

 Hessian Updated using BFGS Update

  2 Hessian modes will be used to form the next step
  Hessian Eigenvalues:
     0.134263    0.219079

 Minimum Search - Taking Simple RFO Step
 Searching for Lamda that Minimizes Along All modes
 Value Taken    Lamda =  -0.05410696
 Calculated Step too Large.  Step scaled by  0.579222
 Step Taken.  Stepsize is  0.300000

                             Maximum     Tolerance    Cnvgd?
         Gradient           0.105056      0.000300      NO
         Displacement       0.299722      0.001200      NO
         Energy change     -0.039745      0.000001      NO


 New Cartesian Coordinates Obtained by Inverse Iteration

 Displacement from previous Coordinates is:  0.207606
 ----------------------------------------------------------------
             Standard Nuclear Orientation (Angstroms)
    I     Atom           X                Y                Z
 ----------------------------------------------------------------
    1      O       0.0000000000     0.0000000000    -0.0611117425
    2      H      -0.7632338127     0.0000000000    -0.6694441288
    3      H       0.7632338127     0.0000000000    -0.6694441288
 ----------------------------------------------------------------
 Molecular Point Group                 C2v   NOp =  4
 Largest Abelian Subgroup              C2v   NOp =  4
 Nuclear Repulsion Energy =     9.0216214449 hartrees
 There are        5 alpha and        5 beta electrons
 Applying Cartesian multipole field
    Component          Value
    ---------          -----
     (2,0,0)        1.00000E-10
     (0,2,0)        2.00000E-10
     (0,0,2)       -3.00000E-10
 Nucleus-field energy     =    -0.0000000006 hartrees
 Requested basis set is 3-21G
 There are 7 shells and 13 basis functions
 A cutoff of  1.0D-11 yielded     28 shell pairs
 There are       103 function pairs
 Smallest overlap matrix eigenvalue = 1.11E-01
 Guess MOs from SCF MO coefficient file

 -----------------------------------------------------------------------
  General SCF calculation program by
  Eric Jon Sundstrom, Paul Horn, Yuezhi Mao, Dmitri Zuev, Alec White,
  David Stuck, Shaama M.S., Shane Yost, Joonho Lee, David Small,
  Daniel Levine, Susi Lehtola, Hugh Burton, Evgeny Epifanovsky
 -----------------------------------------------------------------------
 Hartree-Fock
 using 4 threads for integral computing
 -------------------------------------------------------
 OpenMP Integral computing Module                
 Release: version 1.0, May 2013, Q-Chem Inc. Pittsburgh 
 -------------------------------------------------------
 A restricted SCF calculation will be
 performed using DIIS
 SCF converges when DIIS error is below 1.0e-08
 ---------------------------------------
  Cycle       Energy         DIIS error
 ---------------------------------------
    1     -75.5765544533      1.85e-02  
    2     -75.5841945456      7.21e-03  
    3     -75.5850291773      2.18e-03  
    4     -75.5851967412      5.55e-04  
    5     -75.5852139074      1.01e-04  
    6     -75.5852145866      1.93e-05  
    7     -75.5852146012      1.08e-06  
    8     -75.5852146012      9.73e-08  
    9     -75.5852146012      5.82e-09  Convergence criterion met
 ---------------------------------------
 SCF time:   CPU 0.36s  wall 0.00s 
 SCF   energy in the final basis set =      -75.5852146012
 Total energy in the final basis set =      -75.5852146012
 
 --------------------------------------------------------------
             Orbital Energies (a.u.) and Symmetries
 --------------------------------------------------------------
 
 Alpha MOs, Restricted
 -- Occupied --                  
-20.434  -1.322  -0.673  -0.538  -0.480
  1 A1    2 A1    1 B1    3 A1    1 B2                                         
 -- Virtual --                   
  0.258   0.355   1.176   1.294   1.781   1.876   2.013   3.105
  4 A1    2 B1    3 B1    5 A1    2 B2    6 A1    4 B1    7 A1                 
 
 Beta MOs, Restricted
 -- Occupied --                  
-20.434  -1.322  -0.673  -0.538  -0.480
  1 A1    2 A1    1 B1    3 A1    1 B2                                         
 -- Virtual --                   
  0.258   0.355   1.176   1.294   1.781   1.876   2.013   3.105
  4 A1    2 B1    3 B1    5 A1    2 B2    6 A1    4 B1    7 A1                 
 --------------------------------------------------------------
 
          Ground-State Mulliken Net Atomic Charges

     Atom                 Charge (a.u.)
  ----------------------------------------
      1 O                    -0.717556
      2 H                     0.358778
      3 H                     0.358778
  ----------------------------------------
  Sum of atomic charges =    -0.000000

 -----------------------------------------------------------------
                    Cartesian Multipole Moments
 -----------------------------------------------------------------
    Charge (ESU x 10^10)
                -0.0000
    Dipole Moment (Debye)
         X       0.0000      Y       0.0000      Z      -2.4613
       Tot       2.4613
    Quadrupole Moments (Debye-Ang)
        XX      -4.1834     XY      -0.0000     YY      -6.8601
        XZ       0.0000     YZ      -0.0000     ZZ      -4.8829
    Octopole Moments (Debye-Ang^2)
       XXX       0.0000    XXY       0.0000    XYY       0.0000
       YYY       0.0000    XXZ      -0.4445    XYZ       0.0000
       YYZ       0.9492    XZZ       0.0000    YZZ       0.0000
       ZZZ       1.6694
    Hexadecapole Moments (Debye-Ang^3)
      XXXX      -5.6393   XXXY      -0.0000   XXYY      -1.8755
      XYYY      -0.0000   YYYY      -4.2261   XXXZ      -0.0000
      XXYZ      -0.0000   XYYZ      -0.0000   YYYZ      -0.0000
      XXZZ      -1.2081   XYZZ      -0.0000   YYZZ      -1.7848
      XZZZ      -0.0000   YZZZ      -0.0000   ZZZZ      -5.6359
 -----------------------------------------------------------------
 Calculating analytic gradient of the SCF energy
 Gradient of SCF Energy
            1           2           3
    1  -0.0000000   0.0009966  -0.0009966
    2  -0.0000000   0.0000000  -0.0000000
    3   0.0201095  -0.0100547  -0.0100547
 Max gradient component =       2.011E-02
 RMS gradient           =       8.223E-03
 Gradient time:  CPU 0.14 s  wall 0.04 s
 Geometry Optimization Parameters
   NAtoms,    NIC,     NZ,  NCons,   NDum,   NFix, NCnnct, MaxDiis
        3       9       0       0       0       0       0       0

 Cartesian Hessian Update
 Hessian Updated using BFGS Update


** GEOMETRY OPTIMIZATION IN DELOCALIZED INTERNAL COORDINATES **
   Searching for a Minimum

   Optimization Cycle:   5

                       Coordinates (Angstroms)
     ATOM                X               Y               Z
      1  O         0.0000000000    0.0000000000   -0.0611117425
      2  H        -0.7632338127    0.0000000000   -0.6694441288
      3  H         0.7632338127    0.0000000000   -0.6694441288
   Point Group: c2v   Number of degrees of freedom:     2


   Energy is    -75.585214601

 Hessian Updated using BFGS Update

  2 Hessian modes will be used to form the next step
  Hessian Eigenvalues:
     0.165766    0.367461

 Minimum Search - Taking Simple RFO Step
 Searching for Lamda that Minimizes Along All modes
 Value Taken    Lamda =  -0.00176749
 Step Taken.  Stepsize is  0.102014

                             Maximum     Tolerance    Cnvgd?
         Gradient           0.012450      0.000300      NO
         Displacement       0.081133      0.001200      NO
         Energy change     -0.019193      0.000001      NO


 New Cartesian Coordinates Obtained by Inverse Iteration

 Displacement from previous Coordinates is:  0.084595
 ----------------------------------------------------------------
             Standard Nuclear Orientation (Angstroms)
    I     Atom           X                Y                Z
 ----------------------------------------------------------------
    1      O       0.0000000000     0.0000000000    -0.0909736969
    2      H      -0.7814872752     0.0000000000    -0.6545131516
    3      H       0.7814872752     0.0000000000    -0.6545131516
 ----------------------------------------------------------------
 Molecular Point Group                 C2v   NOp =  4
 Largest Abelian Subgroup              C2v   NOp =  4
 Nuclear Repulsion Energy =     9.1263097129 hartrees
 There are        5 alpha and        5 beta electrons
 Applying Cartesian multipole field
    Component          Value
    ---------          -----
     (2,0,0)        1.00000E-10
     (0,2,0)        2.00000E-10
     (0,0,2)       -3.00000E-10
 Nucleus-field energy     =    -0.0000000006 hartrees
 Requested basis set is 3-21G
 There are 7 shells and 13 basis functions
 A cutoff of  1.0D-11 yielded     28 shell pairs
 There are       103 function pairs
 Smallest overlap matrix eigenvalue = 1.10E-01
 Guess MOs from SCF MO coefficient file

 -----------------------------------------------------------------------
  General SCF calculation program by
  Eric Jon Sundstrom, Paul Horn, Yuezhi Mao, Dmitri Zuev, Alec White,
  David Stuck, Shaama M.S., Shane Yost, Joonho Lee, David Small,
  Daniel Levine, Susi Lehtola, Hugh Burton, Evgeny Epifanovsky
 -----------------------------------------------------------------------
 Hartree-Fock
 using 4 threads for integral computing
 -------------------------------------------------------
 OpenMP Integral computing Module                
 Release: version 1.0, May 2013, Q-Chem Inc. Pittsburgh 
 -------------------------------------------------------
 A restricted SCF calculation will be
 performed using DIIS
 SCF converges when DIIS error is below 1.0e-08
 ---------------------------------------
  Cycle       Energy         DIIS error
 ---------------------------------------
    1     -75.5853835046      4.37e-03  
    2     -75.5858689380      1.55e-03  
    3     -75.5859202152      5.32e-04  
    4     -75.5859299764      1.46e-04  
    5     -75.5859310800      2.59e-05  
    6     -75.5859311256      4.44e-06  
    7     -75.5859311264      3.08e-07  
    8     -75.5859311264      2.43e-08  
    9     -75.5859311264      2.33e-09  Convergence criterion met
 ---------------------------------------
 SCF time:   CPU 0.39s  wall 1.00s 
 SCF   energy in the final basis set =      -75.5859311264
 Total energy in the final basis set =      -75.5859311264
 
 --------------------------------------------------------------
             Orbital Energies (a.u.) and Symmetries
 --------------------------------------------------------------
 
 Alpha MOs, Restricted
 -- Occupied --                  
-20.426  -1.322  -0.688  -0.529  -0.477
  1 A1    2 A1    1 B1    3 A1    1 B2                                         
 -- Virtual --                   
  0.262   0.362   1.213   1.276   1.784   1.861   2.026   3.104
  4 A1    2 B1    3 B1    5 A1    2 B2    6 A1    4 B1    7 A1                 
 
 Beta MOs, Restricted
 -- Occupied --                  
-20.426  -1.322  -0.688  -0.529  -0.477
  1 A1    2 A1    1 B1    3 A1    1 B2                                         
 -- Virtual --                   
  0.262   0.362   1.213   1.276   1.784   1.861   2.026   3.104
  4 A1    2 B1    3 B1    5 A1    2 B2    6 A1    4 B1    7 A1                 
 --------------------------------------------------------------
 
          Ground-State Mulliken Net Atomic Charges

     Atom                 Charge (a.u.)
  ----------------------------------------
      1 O                    -0.735760
      2 H                     0.367880
      3 H                     0.367880
  ----------------------------------------
  Sum of atomic charges =     0.000000

 -----------------------------------------------------------------
                    Cartesian Multipole Moments
 -----------------------------------------------------------------
    Charge (ESU x 10^10)
                -0.0000
    Dipole Moment (Debye)
         X      -0.0000      Y      -0.0000      Z      -2.3754
       Tot       2.3754
    Quadrupole Moments (Debye-Ang)
        XX      -3.9432     XY       0.0000     YY      -6.8309
        XZ       0.0000     YZ       0.0000     ZZ      -4.9283
    Octopole Moments (Debye-Ang^2)
       XXX      -0.0000    XXY       0.0000    XYY      -0.0000
       YYY       0.0000    XXZ      -0.4160    XYZ       0.0000
       YYZ       1.0870    XZZ      -0.0000    YZZ       0.0000
       ZZZ       2.1265
    Hexadecapole Moments (Debye-Ang^3)
      XXXX      -5.3473   XXXY      -0.0000   XXYY      -1.8544
      XYYY      -0.0000   YYYY      -4.1932   XXXZ       0.0000
      XXYZ      -0.0000   XYYZ       0.0000   YYYZ      -0.0000
      XXZZ      -1.1620   XYZZ      -0.0000   YYZZ      -1.7734
      XZZZ       0.0000   YZZZ      -0.0000   ZZZZ      -5.6739
 -----------------------------------------------------------------
 Calculating analytic gradient of the SCF energy
 Gradient of SCF Energy
            1           2           3
    1   0.0000000   0.0015426  -0.0015426
    2   0.0000000   0.0000000  -0.0000000
    3  -0.0049013   0.0024506   0.0024506
 Max gradient component =       4.901E-03
 RMS gradient           =       2.129E-03
 Gradient time:  CPU 0.12 s  wall 0.03 s
 Geometry Optimization Parameters
   NAtoms,    NIC,     NZ,  NCons,   NDum,   NFix, NCnnct, MaxDiis
        3       9       0       0       0       0       0       0

 Cartesian Hessian Update
 Hessian Updated using BFGS Update


** GEOMETRY OPTIMIZATION IN DELOCALIZED INTERNAL COORDINATES **
   Searching for a Minimum

   Optimization Cycle:   6

                       Coordinates (Angstroms)
     ATOM                X               Y               Z
      1  O         0.0000000000    0.0000000000   -0.0909736969
      2  H        -0.7814872752    0.0000000000   -0.6545131516
      3  H         0.7814872752    0.0000000000   -0.6545131516
   Point Group: c2v   Number of degrees of freedom:     2


   Energy is    -75.585931126

 Hessian Updated using BFGS Update

  2 Hessian modes will be used to form the next step
  Hessian Eigenvalues:
     0.186908    0.388482

 Minimum Search - Taking Simple RFO Step
 Searching for Lamda that Minimizes Along All modes
 Value Taken    Lamda =  -0.00006118
 Step Taken.  Stepsize is  0.015245

                             Maximum     Tolerance    Cnvgd?
         Gradient           0.004223      0.000300      NO
         Displacement       0.013240      0.001200      NO
         Energy change     -0.000717      0.000001      NO


 New Cartesian Coordinates Obtained by Inverse Iteration

 Displacement from previous Coordinates is:  0.010287
 ----------------------------------------------------------------
             Standard Nuclear Orientation (Angstroms)
    I     Atom           X                Y                Z
 ----------------------------------------------------------------
    1      O       0.0000000000     0.0000000000    -0.0865305673
    2      H      -0.7813797124     0.0000000000    -0.6567347163
    3      H       0.7813797124     0.0000000000    -0.6567347163
 ----------------------------------------------------------------
 Molecular Point Group                 C2v   NOp =  4
 Largest Abelian Subgroup              C2v   NOp =  4
 Nuclear Repulsion Energy =     9.0915946832 hartrees
 There are        5 alpha and        5 beta electrons
 Applying Cartesian multipole field
    Component          Value
    ---------          -----
     (2,0,0)        1.00000E-10
     (0,2,0)        2.00000E-10
     (0,0,2)       -3.00000E-10
 Nucleus-field energy     =    -0.0000000006 hartrees
 Requested basis set is 3-21G
 There are 7 shells and 13 basis functions
 A cutoff of  1.0D-11 yielded     28 shell pairs
 There are       103 function pairs
 Smallest overlap matrix eigenvalue = 1.11E-01
 Guess MOs from SCF MO coefficient file

 -----------------------------------------------------------------------
  General SCF calculation program by
  Eric Jon Sundstrom, Paul Horn, Yuezhi Mao, Dmitri Zuev, Alec White,
  David Stuck, Shaama M.S., Shane Yost, Joonho Lee, David Small,
  Daniel Levine, Susi Lehtola, Hugh Burton, Evgeny Epifanovsky
 -----------------------------------------------------------------------
 Hartree-Fock
 using 4 threads for integral computing
 -------------------------------------------------------
 OpenMP Integral computing Module                
 Release: version 1.0, May 2013, Q-Chem Inc. Pittsburgh 
 -------------------------------------------------------
 A restricted SCF calculation will be
 performed using DIIS
 SCF converges when DIIS error is below 1.0e-08
 ---------------------------------------
  Cycle       Energy         DIIS error
 ---------------------------------------
    1     -75.5859380818      8.83e-04  
    2     -75.5859562031      3.35e-04  
    3     -75.5859581718      1.05e-04  
    4     -75.5859585735      2.74e-05  
    5     -75.5859586131      4.74e-06  
    6     -75.5859586146      8.89e-07  
    7     -75.5859586146      5.70e-08  
    8     -75.5859586146      5.40e-09  Convergence criterion met
 ---------------------------------------
 SCF time:   CPU 0.34s  wall 0.00s 
 SCF   energy in the final basis set =      -75.5859586146
 Total energy in the final basis set =      -75.5859586146
 
 --------------------------------------------------------------
             Orbital Energies (a.u.) and Symmetries
 --------------------------------------------------------------
 
 Alpha MOs, Restricted
 -- Occupied --                  
-20.427  -1.321  -0.685  -0.530  -0.477
  1 A1    2 A1    1 B1    3 A1    1 B2                                         
 -- Virtual --                   
  0.261   0.360   1.207   1.275   1.784   1.863   2.025   3.103
  4 A1    2 B1    3 B1    5 A1    2 B2    6 A1    4 B1    7 A1                 
 
 Beta MOs, Restricted
 -- Occupied --                  
-20.427  -1.321  -0.685  -0.530  -0.477
  1 A1    2 A1    1 B1    3 A1    1 B2                                         
 -- Virtual --                   
  0.261   0.360   1.207   1.275   1.784   1.863   2.025   3.103
  4 A1    2 B1    3 B1    5 A1    2 B2    6 A1    4 B1    7 A1                 
 --------------------------------------------------------------
 
          Ground-State Mulliken Net Atomic Charges

     Atom                 Charge (a.u.)
  ----------------------------------------
      1 O                    -0.732828
      2 H                     0.366414
      3 H                     0.366414
  ----------------------------------------
  Sum of atomic charges =     0.000000

 -----------------------------------------------------------------
                    Cartesian Multipole Moments
 -----------------------------------------------------------------
    Charge (ESU x 10^10)
                -0.0000
    Dipole Moment (Debye)
         X      -0.0000      Y       0.0000      Z      -2.3862
       Tot       2.3862
    Quadrupole Moments (Debye-Ang)
        XX      -3.9672     XY      -0.0000     YY      -6.8394
        XZ       0.0000     YZ      -0.0000     ZZ      -4.9271
    Octopole Moments (Debye-Ang^2)
       XXX      -0.0000    XXY      -0.0000    XYY      -0.0000
       YYY      -0.0000    XXZ      -0.4293    XYZ       0.0000
       YYZ       1.0692    XZZ      -0.0000    YZZ      -0.0000
       ZZZ       2.0668
    Hexadecapole Moments (Debye-Ang^3)
      XXXX      -5.4035   XXXY      -0.0000   XXYY      -1.8641
      XYYY      -0.0000   YYYY      -4.2026   XXXZ       0.0000
      XXYZ      -0.0000   XYYZ       0.0000   YYYZ      -0.0000
      XXZZ      -1.1679   XYZZ      -0.0000   YYZZ      -1.7775
      XZZZ       0.0000   YZZZ      -0.0000   ZZZZ      -5.6786
 -----------------------------------------------------------------
 Calculating analytic gradient of the SCF energy
 Gradient of SCF Energy
            1           2           3
    1   0.0000000  -0.0006942   0.0006942
    2   0.0000000   0.0000000  -0.0000000
    3   0.0005040  -0.0002520  -0.0002520
 Max gradient component =       6.942E-04
 RMS gradient           =       3.866E-04
 Gradient time:  CPU 0.12 s  wall 0.03 s
 Geometry Optimization Parameters
   NAtoms,    NIC,     NZ,  NCons,   NDum,   NFix, NCnnct, MaxDiis
        3       9       0       0       0       0       0       0

 Cartesian Hessian Update
 Hessian Updated using BFGS Update


** GEOMETRY OPTIMIZATION IN DELOCALIZED INTERNAL COORDINATES **
   Searching for a Minimum

   Optimization Cycle:   7

                       Coordinates (Angstroms)
     ATOM                X               Y               Z
      1  O         0.0000000000    0.0000000000   -0.0865305673
      2  H        -0.7813797124    0.0000000000   -0.6567347163
      3  H         0.7813797124    0.0000000000   -0.6567347163
   Point Group: c2v   Number of degrees of freedom:     2


   Energy is    -75.585958615

 Hessian Updated using BFGS Update

  2 Hessian modes will be used to form the next step
  Hessian Eigenvalues:
     0.160708    0.496307

 Minimum Search - Taking Simple RFO Step
 Searching for Lamda that Minimizes Along All modes
 Value Taken    Lamda =  -0.00000271
 Step Taken.  Stepsize is  0.002813

                             Maximum     Tolerance    Cnvgd?
         Gradient           0.000836      0.000300      NO
         Displacement       0.002544      0.001200      NO
         Energy change     -0.000027      0.000001      NO


 New Cartesian Coordinates Obtained by Inverse Iteration

 Displacement from previous Coordinates is:  0.003170
 ----------------------------------------------------------------
             Standard Nuclear Orientation (Angstroms)
    I     Atom           X                Y                Z
 ----------------------------------------------------------------
    1      O       0.0000000000     0.0000000000    -0.0862831893
    2      H      -0.7802129012     0.0000000000    -0.6568584053
    3      H       0.7802129012     0.0000000000    -0.6568584053
 ----------------------------------------------------------------
 Molecular Point Group                 C2v   NOp =  4
 Largest Abelian Subgroup              C2v   NOp =  4
 Nuclear Repulsion Energy =     9.0986509354 hartrees
 There are        5 alpha and        5 beta electrons
 Applying Cartesian multipole field
    Component          Value
    ---------          -----
     (2,0,0)        1.00000E-10
     (0,2,0)        2.00000E-10
     (0,0,2)       -3.00000E-10
 Nucleus-field energy     =    -0.0000000006 hartrees
 Requested basis set is 3-21G
 There are 7 shells and 13 basis functions
 A cutoff of  1.0D-11 yielded     28 shell pairs
 There are       103 function pairs
 Smallest overlap matrix eigenvalue = 1.11E-01
 Guess MOs from SCF MO coefficient file

 -----------------------------------------------------------------------
  General SCF calculation program by
  Eric Jon Sundstrom, Paul Horn, Yuezhi Mao, Dmitri Zuev, Alec White,
  David Stuck, Shaama M.S., Shane Yost, Joonho Lee, David Small,
  Daniel Levine, Susi Lehtola, Hugh Burton, Evgeny Epifanovsky
 -----------------------------------------------------------------------
 Hartree-Fock
 using 4 threads for integral computing
 -------------------------------------------------------
 OpenMP Integral computing Module                
 Release: version 1.0, May 2013, Q-Chem Inc. Pittsburgh 
 -------------------------------------------------------
 A restricted SCF calculation will be
 performed using DIIS
 SCF converges when DIIS error is below 1.0e-08
 ---------------------------------------
  Cycle       Energy         DIIS error
 ---------------------------------------
    1     -75.5859592970      1.44e-04  
    2     -75.5859596556      3.93e-05  
    3     -75.5859596769      1.45e-05  
    4     -75.5859596802      1.54e-06  
    5     -75.5859596803      3.71e-07  
    6     -75.5859596803      6.49e-08  
    7     -75.5859596803      7.85e-09  Convergence criterion met
 ---------------------------------------
 SCF time:   CPU 0.31s  wall 0.00s 
 SCF   energy in the final basis set =      -75.5859596803
 Total energy in the final basis set =      -75.5859596803
 
 --------------------------------------------------------------
             Orbital Energies (a.u.) and Symmetries
 --------------------------------------------------------------
 
 Alpha MOs, Restricted
 -- Occupied --                  
-20.427  -1.321  -0.686  -0.530  -0.477
  1 A1    2 A1    1 B1    3 A1    1 B2                                         
 -- Virtual --                   
  0.261   0.360   1.206   1.277   1.784   1.863   2.025   3.103
  4 A1    2 B1    3 B1    5 A1    2 B2    6 A1    4 B1    7 A1                 
 
 Beta MOs, Restricted
 -- Occupied --                  
-20.427  -1.321  -0.686  -0.530  -0.477
  1 A1    2 A1    1 B1    3 A1    1 B2                                         
 -- Virtual --                   
  0.261   0.360   1.206   1.277   1.784   1.863   2.025   3.103
  4 A1    2 B1    3 B1    5 A1    2 B2    6 A1    4 B1    7 A1                 
 --------------------------------------------------------------
 
          Ground-State Mulliken Net Atomic Charges

     Atom                 Charge (a.u.)
  ----------------------------------------
      1 O                    -0.732763
      2 H                     0.366382
      3 H                     0.366382
  ----------------------------------------
  Sum of atomic charges =     0.000000

 -----------------------------------------------------------------
                    Cartesian Multipole Moments
 -----------------------------------------------------------------
    Charge (ESU x 10^10)
                -0.0000
    Dipole Moment (Debye)
         X       0.0000      Y       0.0000      Z      -2.3880
       Tot       2.3880
    Quadrupole Moments (Debye-Ang)
        XX      -3.9737     XY       0.0000     YY      -6.8379
        XZ      -0.0000     YZ       0.0000     ZZ      -4.9243
    Octopole Moments (Debye-Ang^2)
       XXX       0.0000    XXY      -0.0000    XYY       0.0000
       YYY      -0.0000    XXZ      -0.4261    XYZ      -0.0000
       YYZ       1.0669    XZZ       0.0000    YZZ      -0.0000
       ZZZ       2.0594
    Hexadecapole Moments (Debye-Ang^3)
      XXXX      -5.4009   XXXY       0.0000   XXYY      -1.8616
      XYYY       0.0000   YYYY      -4.2009   XXXZ      -0.0000
      XXYZ       0.0000   XYYZ      -0.0000   YYYZ       0.0000
      XXZZ      -1.1681   XYZZ       0.0000   YYZZ      -1.7762
      XZZZ      -0.0000   YZZZ       0.0000   ZZZZ      -5.6722
 -----------------------------------------------------------------
 Calculating analytic gradient of the SCF energy
 Gradient of SCF Energy
            1           2           3
    1  -0.0000000   0.0001303  -0.0001303
    2   0.0000000  -0.0000000   0.0000000
    3   0.0000052  -0.0000026  -0.0000026
 Max gradient component =       1.303E-04
 RMS gradient           =       6.147E-05
 Gradient time:  CPU 0.12 s  wall 0.03 s
 Geometry Optimization Parameters
   NAtoms,    NIC,     NZ,  NCons,   NDum,   NFix, NCnnct, MaxDiis
        3       9       0       0       0       0       0       0

 Cartesian Hessian Update
 Hessian Updated using BFGS Update


** GEOMETRY OPTIMIZATION IN DELOCALIZED INTERNAL COORDINATES **
   Searching for a Minimum

   Optimization Cycle:   8

                       Coordinates (Angstroms)
     ATOM                X               Y               Z
      1  O         0.0000000000    0.0000000000   -0.0862831893
      2  H        -0.7802129012    0.0000000000   -0.6568584053
      3  H         0.7802129012    0.0000000000   -0.6568584053
   Point Group: c2v   Number of degrees of freedom:     2


   Energy is    -75.585959680

 Hessian Updated using BFGS Update

  2 Hessian modes will be used to form the next step
  Hessian Eigenvalues:
     0.179966    0.537870

 Minimum Search - Taking Simple RFO Step
 Searching for Lamda that Minimizes Along All modes
 Value Taken    Lamda =   0.00000000
 Step Taken.  Stepsize is  0.000711

                             Maximum     Tolerance    Cnvgd?
         Gradient           0.000183      0.000300     YES
         Displacement       0.000710      0.001200     YES
         Energy change     -0.000001      0.000001      NO


                       Distance Matrix (Angstroms)
             O (  1)   H (  2)
   H (  2)  0.966586
   H (  3)  0.966586  1.560426
 
 Final energy is   -75.5859596803250     


 ******************************
 **  OPTIMIZATION CONVERGED  **
 ******************************

                       Coordinates (Angstroms)
     ATOM                X               Y               Z
      1  O         0.0000000000    0.0000000000   -0.0862831893
      2  H        -0.7802129012    0.0000000000   -0.6568584053
      3  H         0.7802129012    0.0000000000   -0.6568584053

Z-matrix Print:
$molecule
0 1
O 
H  1 0.966586
H  1 0.966586 2 107.643462
$end

 
 --------------------------------------------------------------
             Orbital Energies (a.u.) and Symmetries
 --------------------------------------------------------------
 
 Alpha MOs, Restricted
 -- Occupied --                  
-20.427  -1.321  -0.686  -0.530  -0.477
  1 A1    2 A1    1 B1    3 A1    1 B2                                         
 -- Virtual --                   
  0.261   0.360   1.206   1.277   1.784   1.863   2.025   3.103
  4 A1    2 B1    3 B1    5 A1    2 B2    6 A1    4 B1    7 A1                 
 
 Beta MOs, Restricted
 -- Occupied --                  
-20.427  -1.321  -0.686  -0.530  -0.477
  1 A1    2 A1    1 B1    3 A1    1 B2                                         
 -- Virtual --                   
  0.261   0.360   1.206   1.277   1.784   1.863   2.025   3.103
  4 A1    2 B1    3 B1    5 A1    2 B2    6 A1    4 B1    7 A1                 
 --------------------------------------------------------------
 
          Ground-State Mulliken Net Atomic Charges

     Atom                 Charge (a.u.)
  ----------------------------------------
      1 O                    -0.732763
      2 H                     0.366382
      3 H                     0.366382
  ----------------------------------------
  Sum of atomic charges =     0.000000

 -----------------------------------------------------------------
                    Cartesian Multipole Moments
 -----------------------------------------------------------------
    Charge (ESU x 10^10)
                -0.0000
    Dipole Moment (Debye)
         X       0.0000      Y       0.0000      Z      -2.3880
       Tot       2.3880
    Quadrupole Moments (Debye-Ang)
        XX      -3.9737     XY       0.0000     YY      -6.8379
        XZ      -0.0000     YZ       0.0000     ZZ      -4.9243
    Octopole Moments (Debye-Ang^2)
       XXX       0.0000    XXY      -0.0000    XYY       0.0000
       YYY      -0.0000    XXZ      -0.4261    XYZ      -0.0000
       YYZ       1.0669    XZZ       0.0000    YZZ      -0.0000
       ZZZ       2.0594
    Hexadecapole Moments (Debye-Ang^3)
      XXXX      -5.4009   XXXY       0.0000   XXYY      -1.8616
      XYYY       0.0000   YYYY      -4.2009   XXXZ      -0.0000
      XXYZ       0.0000   XYYZ      -0.0000   YYYZ       0.0000
      XXZZ      -1.1681   XYZZ       0.0000   YYZZ      -1.7762
      XZZZ      -0.0000   YZZZ       0.0000   ZZZZ      -5.6722
 -----------------------------------------------------------------
Archival summary:
1\1\comet-ln2.sdsc.edu\OPT\HF\3-21G\12\jjakowsk\FriSep2116:03:472018FriSep2116:03:472018\0\\#,OPT,HF,3-21G,\\0,1\O\H,1,0.966586\H,1,0.966586,2,107.643\\HF=-75.5859597\\@

 Total job time:  8.27s(wall), 12.29s(cpu) 
 Fri Sep 21 16:03:47 2018

        *************************************************************
        *                                                           *
        *  Thank you very much for using Q-Chem.  Have a nice day.  *
        *                                                           *
        *************************************************************


0 sent ACK to 0 
now end server 0 ... 
cleanup process ... done

Running Job 2 of 2 water-opt.inp
qchem water-opt.inp_7514.1 ./qchem7514/ 1
/opt/qchem/bin/mpi/mpirun_qchem -machinefile /opt/qchem/bin/mpi/machines -np 1 /opt/qchem/exe/qcprog.exe water-opt.inp_7514.1 ./qchem7514/

Process 0 of 1 is on comet-ln2.sdsc.edu - thread support 0
initial socket setup ...start
initial socket setup ...done 
now start server 0 ... 
Check license passed

                  Welcome to Q-Chem
     A Quantum Leap Into The Future Of Chemistry


 Q-Chem 5.1, Q-Chem, Inc., Pleasanton, CA (2018)

 Yihan Shao,  Zhengting Gan,  E. Epifanovsky,  A. T. B. Gilbert,  M. Wormit,  
 J. Kussmann,  A. W. Lange,  A. Behn,  Jia Deng,  Xintian Feng,  D. Ghosh,  
 M. Goldey,  P. R. Horn,  L. D. Jacobson,  I. Kaliman,  T. Kus,  A. Landau,  
 Jie Liu,  E. I. Proynov,  R. M. Richard,  R. P. Steele,  E. J. Sundstrom,  
 H. L. Woodcock III,  P. M. Zimmerman,  D. Zuev,  B. Albrecht,  E. Alguire,  
 S. A. Baeppler,  D. Barton,  Z. Benda,  Y. A. Bernard,  E. J. Berquist,  
 K. B. Bravaya,  H. Burton,  D. Casanova,  Chun-Min Chang,  Yunqing Chen,  
 A. Chien,  K. D. Closser,  M. P. Coons,  S. Coriani,  S. Dasgupta,  
 A. L. Dempwolff,  M. Diedenhofen,  Hainam Do,  R. G. Edgar,  Po-Tung Fang,  
 S. Faraji,  S. Fatehi,  Qingguo Feng,  K. D. Fenk,  J. Fosso-Tande,  
 Qinghui Ge,  A. Ghysels,  G. Gidofalvi,  J. Gomes,  J. Gonthier,  A. Gunina,  
 D. Hait,  M. W. D. Hanson-Heine,  P. H. P. Harbach,  A. W. Hauser,  
 J. E. Herr,  E. G. Hohenstein,  Z. C. Holden,  Kerwin Hui,  B. C. Huynh,  
 T.-C. Jagau,  Hyunjun Ji,  B. Kaduk,  K. Khistyaev,  Jaehoon Kim,  
 P. Klunzinger,  K. Koh,  D. Kosenkov,  L. Koulias,  T. Kowalczyk,  
 C. M. Krauter,  A. Kunitsa,  Ka Un Lao,  A. Laurent,  K. V. Lawler,  
 Joonho Lee,  D. Lefrancois,  S. Lehtola,  D. S. Levine,  Yi-Pei Li,  
 You-Sheng Lin,  Fenglai Liu,  E. Livshits,  A. Luenser,  P. Manohar,  
 E. Mansoor,  S. F. Manzer,  Shan-Ping Mao,  Yuezhi Mao,  N. Mardirossian,  
 A. V. Marenich,  T. Markovich,  L. A. Martinez-Martinez,  S. A. Maurer,  
 N. J. Mayhall,  S. C. McKenzie,  J.-M. Mewes,  A. F. Morrison,  
 J. W. Mullinax,  K. Nanda,  T. S. Nguyen-Beck,  R. Olivares-Amaya,  
 J. A. Parkhill,  T. M. Perrine,  F. Plasser,  P. Pokhilko,  S. Prager,  
 A. Prociuk,  E. Ramos,  D. R. Rehn,  F. Rob,  M. Schneider,  N. Sergueev,  
 S. M. Sharada,  S. Sharma,  D. W. Small,  T. Stauch,  T. Stein,  
 Yu-Chuan Su,  A. J. W. Thom,  A. Tkatchenko,  T. Tsuchimochi,  N. M. Tubman,  
 L. Vogt,  M. L. Vidal,  O. Vydrov,  M. A. Watson,  J. Wenzel,  
 M. de Wergifosse,  T. A. Wesolowski,  A. White,  J. Witte,  A. Yamada,  
 Jun Yang,  K. Yao,  S. Yeganeh,  S. R. Yost,  Zhi-Qiang You,  A. Zech,  
 Igor Ying Zhang,  Xing Zhang,  Yan Zhao,  Ying Zhu,  B. R. Brooks,  
 G. K. L. Chan,  C. J. Cramer,  M. S. Gordon,  W. J. Hehre,  A. Klamt,  
 M. W. Schmidt,  C. D. Sherrill,  D. G. Truhlar,  A. Aspuru-Guzik,  R. Baer,  
 A. T. Bell,  N. A. Besley,  Jeng-Da Chai,  A. E. DePrince, III,  
 R. A. DiStasio Jr.,  A. Dreuw,  B. D. Dunietz,  T. R. Furlani,  
 Chao-Ping Hsu,  Yousung Jung,  Jing Kong,  D. S. Lambrecht,  WanZhen Liang,  
 C. Ochsenfeld,  V. A. Rassolov,  L. V. Slipchenko,  J. E. Subotnik,  
 T. Van Voorhis,  J. M. Herbert,  A. I. Krylov,  P. M. W. Gill,  M. Head-Gordon

 Contributors to earlier versions of Q-Chem not listed above: 
 R. D. Adamson,  B. Austin,  J. Baker,  G. J. O. Beran,  K. Brandhorst,  
 S. T. Brown,  E. F. C. Byrd,  A. K. Chakraborty,  C.-L. Cheng,  
 Siu Hung Chien,  D. M. Chipman,  D. L. Crittenden,  H. Dachsel,  
 R. J. Doerksen,  A. D. Dutoi,  L. Fusti-Molnar,  W. A. Goddard III,  
 A. Golubeva-Zadorozhnaya,  S. R. Gwaltney,  G. Hawkins,  A. Heyden,  
 S. Hirata,  G. Kedziora,  F. J. Keil,  C. Kelley,  Jihan Kim,  R. A. King,  
 R. Z. Khaliullin,  P. P. Korambath,  W. Kurlancheek,  A. M. Lee,  M. S. Lee,  
 S. V. Levchenko,  Ching Yeh Lin,  D. Liotard,  R. C. Lochan,  I. Lotan,  
 P. E. Maslen,  N. Nair,  D. P. O'Neill,  D. Neuhauser,  E. Neuscamman,  
 C. M. Oana,  R. Olson,  B. Peters,  R. Peverati,  P. A. Pieniazek,  
 Y. M. Rhee,  J. Ritchie,  M. A. Rohrdanz,  E. Rosta,  N. J. Russ,  
 H. F. Schaefer III,  N. E. Schultz,  N. Shenvi,  A. C. Simmonett,  A. Sodt,  
 D. Stuck,  K. S. Thanthiriwatte,  V. Vanovschi,  Tao Wang,  A. Warshel,  
 C. F. Williams,  Q. Wu,  X. Xu,  W. Zhang

 Please cite Q-Chem as follows:
 Y. Shao et al., Mol. Phys. 113, 184-215 (2015)
 DOI: 10.1080/00268976.2014.952696

 Q-Chem 5.1.1 for Intel X86 EM64T Linux

 Parts of Q-Chem use Armadillo 8.300.2 (Tropical Shenanigans).
 http://arma.sourceforge.net/

 Q-Chem begins on Fri Sep 21 16:04:08 2018  

Host: 
0

     Scratch files written to ./qchem7514//
 Aug318 |scratch|qcdevops|jenkins|workspace|build_RNUM    
 Parallel job on  1  processors
Processing $rem in /opt/qchem/config/preferences.
 MEM_TOTAL  4000 
The previous job contains 0 fragments, simply inherited here
Input Ideriv = 2
Curr. Ideriv = -1
Max.  Ideriv = 2

Checking the input file for inconsistencies... 	...done.

--------------------------------------------------------------
User input:
--------------------------------------------------------------

$molecule
read
$end

$rem
BASIS       3-21G
JOBTYPE     freq
METHOD      hf
SCF_GUESS   read

vibman_print 6
$end

--------------------------------------------------------------
 ----------------------------------------------------------------
             Standard Nuclear Orientation (Angstroms)
    I     Atom           X                Y                Z
 ----------------------------------------------------------------
    1      O       0.0000000000     0.0000000000     0.1141150432
    2      H      -0.7802129012    -0.0000000000    -0.4564601728
    3      H       0.7802129012     0.0000000000    -0.4564601728
 ----------------------------------------------------------------
 Molecular Point Group                 C2v   NOp =  4
 Largest Abelian Subgroup              C2v   NOp =  4
 Nuclear Repulsion Energy =     9.0986509354 hartrees
 There are        5 alpha and        5 beta electrons
 Requested basis set is 3-21G
 There are 7 shells and 13 basis functions

 Total QAlloc Memory Limit   4000 MB
 Mega-Array Size       188 MB
 MEM_STATIC part       192 MB

                       Distance Matrix (Angstroms)
             O (  1)   H (  2)
   H (  2)  0.966586
   H (  3)  0.966586  1.560426
 
 A cutoff of  1.0D-11 yielded     28 shell pairs
 There are       103 function pairs
 
 -------------------------------------------------------
 OpenMP Integral Computing Module                       
 Release: version 1.0, May 2013, Q-Chem Inc. Pittsburgh 
 -------------------------------------------------------
 Integral Job Info:
 Integral job number is                      11
 Integral operator is                         1
 short-range coefficients                     0
 long-range coefficients              100000000
 Omega coefficients                           0
 if combine SR and LR in K                    0
 Integral screening is                        0
 Integral computing path is                   2
 max size of driver memory is            800000
 size of driver memory is                 45569
 size of scratch memory is               800000
 max col of scratch BK array                289
 max len of scratch array in speh3           22
 max len of scratch index in speh4            8
 max int batch size is                      520
 min int batch size is                       52
 fixed nKL is                               143
 max L of basis functions is                  1
 order of int derivative is                   0
 number of shells is                          7
 number of basis is                          13
 number of cartesian basis is                13
 number of contracted shell pairs            28
 number of primitive shell pairs             83
 maxK2 (contraction) of shell pair            9
 max number of K2 of shell pair               1
 max number of CS2 of shell pair              4
 max number of PS2 of shell pair             12
 mem total for path MDJ                  504126
 -------------------------------------------------------
 Smallest overlap matrix eigenvalue = 1.11E-01
 Guess MOs from SCF MO coefficient file

 -----------------------------------------------------------------------
  General SCF calculation program by
  Eric Jon Sundstrom, Paul Horn, Yuezhi Mao, Dmitri Zuev, Alec White,
  David Stuck, Shaama M.S., Shane Yost, Joonho Lee, David Small,
  Daniel Levine, Susi Lehtola, Hugh Burton, Evgeny Epifanovsky
 -----------------------------------------------------------------------
 Hartree-Fock
 using 4 threads for integral computing
 -------------------------------------------------------
 OpenMP Integral computing Module                
 Release: version 1.0, May 2013, Q-Chem Inc. Pittsburgh 
 -------------------------------------------------------
 A restricted SCF calculation will be
 performed using DIIS
 SCF converges when DIIS error is below 1.0e-08
 ---------------------------------------
  Cycle       Energy         DIIS error
 ---------------------------------------
    1     -75.5859596801      6.49e-10  
    2     -75.5859596801      2.47e-10  Convergence criterion met
 ---------------------------------------
 SCF time:   CPU 0.10s  wall 0.00s 
 SCF   energy in the final basis set =      -75.5859596801
 Total energy in the final basis set =      -75.5859596801
 
 --------------------------------------------------------------
             Orbital Energies (a.u.) and Symmetries
 --------------------------------------------------------------
 
 Alpha MOs, Restricted
 -- Occupied --                  
-20.427  -1.321  -0.686  -0.530  -0.477
  1 A1    2 A1    1 B1    3 A1    1 B2                                         
 -- Virtual --                   
  0.261   0.360   1.206   1.277   1.784   1.863   2.025   3.103
  4 A1    2 B1    3 B1    5 A1    2 B2    6 A1    4 B1    7 A1                 
 
 Beta MOs, Restricted
 -- Occupied --                  
-20.427  -1.321  -0.686  -0.530  -0.477
  1 A1    2 A1    1 B1    3 A1    1 B2                                         
 -- Virtual --                   
  0.261   0.360   1.206   1.277   1.784   1.863   2.025   3.103
  4 A1    2 B1    3 B1    5 A1    2 B2    6 A1    4 B1    7 A1                 
 --------------------------------------------------------------
 
          Ground-State Mulliken Net Atomic Charges

     Atom                 Charge (a.u.)
  ----------------------------------------
      1 O                    -0.732763
      2 H                     0.366382
      3 H                     0.366382
  ----------------------------------------
  Sum of atomic charges =    -0.000000

 -----------------------------------------------------------------
                    Cartesian Multipole Moments
 -----------------------------------------------------------------
    Charge (ESU x 10^10)
                -0.0000
    Dipole Moment (Debye)
         X      -0.0000      Y       0.0000      Z      -2.3880
       Tot       2.3880
    Quadrupole Moments (Debye-Ang)
        XX      -3.9737     XY       0.0000     YY      -6.8379
        XZ       0.0000     YZ       0.0000     ZZ      -5.8814
    Octopole Moments (Debye-Ang^2)
       XXX       0.0000    XXY       0.0000    XYY       0.0000
       YYY       0.0000    XXZ      -1.2225    XYZ      -0.0000
       YYZ      -0.3034    XZZ       0.0000    YZZ       0.0000
       ZZZ      -1.1888
    Hexadecapole Moments (Debye-Ang^3)
      XXXX      -5.4009   XXXY       0.0000   XXYY      -1.8616
      XYYY       0.0000   YYYY      -4.2009   XXXZ      -0.0000
      XXYZ       0.0000   XYYZ      -0.0000   YYYZ       0.0000
      XXZZ      -1.4985   XYZZ       0.0000   YYZZ      -1.6232
      XZZZ      -0.0000   YZZZ       0.0000   ZZZZ      -5.2848
 -----------------------------------------------------------------
 Calculating MO derivatives via CPSCF
 D1JvT checksum  = 1332 175.2197036584
 D1KAT checksum  = 2196 37.7656253781
   1         3           9      0.111629    0.031971
   2         3           9      0.013229    0.005202
   3         4           8      0.000705    0.000355
   4         8           4      0.000023    0.000013
   5        12           0      0.000000    0.000000    Roots Converged
 Time for AOints: 0.1 s (CPU) 0.0 s (wall)
 ------------------------------------------------------------------------------
                     AOints        : Timing summary (seconds)
 ------------------------------------------------------------------------------
     job step          cpu (% of tot)      sys (% of tot)     wall (% of tot)
 ------------------------------------------------------------------------------
  cpscf_lag         0.5249E+00 (40.8)   0.1100E-04 (45.8)   0.2109E+00 (46.8)
  iterzp            0.5459E+00 (42.4)   0.9000E-05 (37.5)   0.1626E+00 (36.1)
  make_fx           0.0000E+00 ( 0.0)   0.0000E+00 ( 0.0)   0.0000E+00 ( 0.0)
  AOints            0.5899E-01 ( 4.6)   0.2000E-05 ( 8.3)   0.2327E-01 ( 5.2)
 ------------------------------------------------------------------------------
   Grand Totals     0.1288E+01          0.2400E-04          0.4506E+00
 ------------------------------------------------------------------------------
 Calculating analytic Hessian of the SCF energy
 Polarizability Matrix (a.u.)
            1           2           3
    1  -6.7987912  -0.0000000   0.0000000
    2  -0.0000000  -0.7835803   0.0000000
    3   0.0000000   0.0000000  -3.6287223
 
 Direct stationary perturbation theory relativistic correction:
 
 rels  =       0.031829746254
 relv  =      -0.104933996419
 rel2e =       0.023934267624
 E_rel =      -0.049169982542
 
 Hessian of the SCF Energy
            1           2           3           4           5           6
    1   0.7154238   0.0000000  -0.0000000  -0.3577119   0.0000000  -0.2615955
    2   0.0000000   0.0000048  -0.0000000   0.0000000  -0.0000024   0.0000000
    3  -0.0000000  -0.0000000   0.4358310  -0.1829596   0.0000000  -0.2179155
    4  -0.3577119   0.0000000  -0.1829596   0.3952662  -0.0000000   0.2222776
    5   0.0000000  -0.0000024   0.0000000  -0.0000000  -0.0000430  -0.0000000
    6  -0.2615955   0.0000000  -0.2179155   0.2222776  -0.0000000   0.2045669
    7  -0.3577119  -0.0000000   0.1829596  -0.0375542  -0.0000000   0.0393179
    8  -0.0000000  -0.0000024   0.0000000   0.0000000   0.0000454  -0.0000000
    9   0.2615955   0.0000000  -0.2179155  -0.0393179   0.0000000   0.0133486
            7           8           9
    1  -0.3577119  -0.0000000   0.2615955
    2  -0.0000000  -0.0000024   0.0000000
    3   0.1829596   0.0000000  -0.2179155
    4  -0.0375542   0.0000000  -0.0393179
    5  -0.0000000   0.0000454   0.0000000
    6   0.0393179  -0.0000000   0.0133486
    7   0.3952662   0.0000000  -0.2222776
    8   0.0000000  -0.0000430  -0.0000000
    9  -0.2222776  -0.0000000   0.2045669
 Gradient time:  CPU 1.91 s  wall 0.71 s

 Mass-Weighted Hessian Matrix:


     0.044728    0.000000   -0.000000   -0.089094    0.000000   -0.065155
     0.000000    0.000000   -0.000000    0.000000   -0.000001    0.000000
    -0.000000   -0.000000    0.027248   -0.045569    0.000000   -0.054275
    -0.089094    0.000000   -0.045569    0.392195   -0.000000    0.220551
     0.000000   -0.000001    0.000000   -0.000000   -0.000043   -0.000000
    -0.065155    0.000000   -0.054275    0.220551   -0.000000    0.202978
    -0.089094   -0.000000    0.045569   -0.037262   -0.000000    0.039012
    -0.000000   -0.000001    0.000000    0.000000    0.000045   -0.000000
     0.065155    0.000000   -0.054275   -0.039012    0.000000    0.013245


    -0.089094   -0.000000    0.065155
    -0.000000   -0.000001    0.000000
     0.045569    0.000000   -0.054275
    -0.037262    0.000000   -0.039012
    -0.000000    0.000045    0.000000
     0.039012   -0.000000    0.013245
     0.392195    0.000000   -0.220551
     0.000000   -0.000043   -0.000000
    -0.220551   -0.000000    0.202978

 Vectors for Translations and Rotations


     0.942382    0.000000    0.000000   -0.000000    0.000000   -0.189838
     0.000000    0.942382    0.000000    0.334538    0.000000   -0.000000
     0.000000    0.000000    0.942382    0.000000    0.000000    0.000000
     0.236554    0.000000    0.000000    0.000000   -0.000000    0.378137
     0.000000    0.236554    0.000000   -0.666365    0.707107    0.000000
     0.000000    0.000000    0.236554    0.000000    0.000000   -0.582231
     0.236554    0.000000    0.000000    0.000000    0.000000    0.378137
     0.000000    0.236554    0.000000   -0.666365   -0.707107    0.000000
     0.000000    0.000000    0.236554    0.000000    0.000000    0.582231

 The Projection Matrix


     0.075877    0.000000    0.000000   -0.151139   -0.000000   -0.110529
     0.000000    0.000000    0.000000   -0.000000   -0.000000   -0.000000
     0.000000    0.000000    0.111915    0.000000    0.000000   -0.222924
    -0.151139   -0.000000    0.000000    0.801054    0.000000    0.220163
    -0.000000   -0.000000    0.000000    0.000000    0.000000    0.000000
    -0.110529   -0.000000   -0.222924    0.220163    0.000000    0.605049
    -0.151139   -0.000000    0.000000   -0.198946   -0.000000    0.220163
    -0.000000   -0.000000    0.000000   -0.000000    0.000000    0.000000
     0.110529    0.000000   -0.222924   -0.220163   -0.000000    0.283035


    -0.151139   -0.000000    0.110529
    -0.000000   -0.000000    0.000000
     0.000000    0.000000   -0.222924
    -0.198946   -0.000000   -0.220163
    -0.000000    0.000000   -0.000000
     0.220163    0.000000    0.283035
     0.801054    0.000000   -0.220163
     0.000000    0.000000   -0.000000
    -0.220163   -0.000000    0.605049

 Translations and Rotations Projected Out of Hessian

 Projected Mass-Weighted Hessian Matrix:


     0.044726    0.000000   -0.000000   -0.089089   -0.000000   -0.065152
     0.000000    0.000000   -0.000000   -0.000000   -0.000000   -0.000000
    -0.000000   -0.000000    0.027248   -0.045569   -0.000000   -0.054275
    -0.089089   -0.000000   -0.045569    0.392186    0.000000    0.220545
    -0.000000   -0.000000   -0.000000    0.000000    0.000000    0.000000
    -0.065152   -0.000000   -0.054275    0.220545    0.000000    0.203017
    -0.089089   -0.000000    0.045569   -0.037272   -0.000000    0.039007
    -0.000000   -0.000000    0.000000   -0.000000   -0.000000    0.000000
     0.065152    0.000000   -0.054275   -0.039007   -0.000000    0.013205


    -0.089089   -0.000000    0.065152
    -0.000000   -0.000000    0.000000
     0.045569    0.000000   -0.054275
    -0.037272   -0.000000   -0.039007
    -0.000000   -0.000000   -0.000000
     0.039007    0.000000    0.013205
     0.392186    0.000000   -0.220545
     0.000000    0.000000   -0.000000
    -0.220545   -0.000000    0.203017

 Eigenvectors of Proj. Mass-Weighted Hessian Matrix:


     0.223619    0.861188    0.000000   -0.000000   -0.004448   -0.363941
    -0.000000    0.000000    0.000408    1.000000    0.000000   -0.000000
     0.392737    0.059859   -0.000000   -0.000000    0.768577    0.373562
    -0.084238    0.315246    0.000000   -0.000000   -0.117773    0.280356
    -0.000000   -0.000000    1.000000   -0.000408    0.000000    0.000000
     0.290527   -0.120448   -0.000000    0.000000    0.352443   -0.414513
    -0.084238    0.315246    0.000000   -0.000000   -0.117773    0.280356
     0.829722   -0.137313    0.000000    0.000000   -0.506159    0.191077
    -0.093360    0.150500   -0.000000   -0.000000    0.033409    0.602053


    -0.000000   -0.000000   -0.275458
     0.000000   -0.000000   -0.000000
    -0.283345   -0.177851    0.000000
    -0.375921    0.598902    0.548684
    -0.000000    0.000000    0.000000
     0.564395    0.354261    0.401257
     0.375921   -0.598902    0.548684
     0.000000   -0.000000    0.000000
     0.564395    0.354261   -0.401257

 Vibrational Frequencies in atomic units
    -0.0000000000   -0.0000000000   -0.0000000000    0.0000000000    0.0000000000    0.0000000000
     0.1225552566    0.5503730632    0.5894522459
 **********************************************************************
 **                                                                  **
 **                       VIBRATIONAL ANALYSIS                       **
 **                       --------------------                       **
 **                                                                  **
 **        VIBRATIONAL FREQUENCIES (CM**-1) AND NORMAL MODES         **
 **     FORCE CONSTANTS (mDYN/ANGSTROM) AND REDUCED MASSES (AMU)     **
 **                  INFRARED INTENSITIES (KM/MOL)                   **
 **                                                                  **
 **********************************************************************
 

 Mode:                 1                      2                      3
 Frequency:      1799.58                3813.59                3946.66
 Force Cnst:      2.0794                 8.8996                 9.9570
 Red. Mass:       1.0898                 1.0386                 1.0850
 IR Active:          YES                    YES                    YES
 IR Intens:       79.888                  0.048                  9.117
 Raman Active:       YES                    YES                    YES
               X      Y      Z        X      Y      Z        X      Y      Z
 O         -0.000  0.000 -0.074   -0.000 -0.000 -0.045   -0.072 -0.000  0.000
 H         -0.391 -0.000  0.587    0.608  0.000  0.360    0.569  0.000  0.416
 H          0.391  0.000  0.587   -0.608 -0.000  0.360    0.569  0.000 -0.416
 TransDip  -0.000  0.000  0.286    0.000 -0.000  0.007    0.097  0.000 -0.000

 STANDARD THERMODYNAMIC QUANTITIES AT   298.15 K  AND     1.00 ATM

   This Molecule has  0 Imaginary Frequencies
   Zero point vibrational energy:       13.666 kcal/mol

   Atom    1 Element O  Has Mass   15.99491
   Atom    2 Element H  Has Mass    1.00783
   Atom    3 Element H  Has Mass    1.00783
   Molecular Mass:    18.010570 amu
   Principal axes and moments of inertia in amu*Bohr^2:
                             1           2           3
    Eigenvalues --        2.08111     4.38169     6.46280
          X               1.00000     0.00000    -0.00000
          Y               0.00000     0.00000     1.00000
          Z               0.00000     1.00000     0.00000
   Rotational Symmetry Number is   2
   The Molecule is an Asymmetric Top
   Translational Enthalpy:        0.889 kcal/mol
   Rotational Enthalpy:           0.889 kcal/mol
   Vibrational Enthalpy:         13.667 kcal/mol
   gas constant (RT):             0.592 kcal/mol
   Translational Entropy:        34.608  cal/mol.K
   Rotational Entropy:           10.476  cal/mol.K
   Vibrational Entropy:           0.003  cal/mol.K

   Total Enthalpy:               16.037 kcal/mol
   Total Entropy:                45.087  cal/mol.K
Archival summary:
1\1\comet-ln2.sdsc.edu\FREQ\HF\3-21G\12\jjakowsk\FriSep2116:04:092018FriSep2116:04:092018\0\\#,FREQ,HF,3-21G,\\0,1\O\H,1,0.966586\H,1,0.966586,2,107.643\\HF=-75.5859597\\@

 Total job time:  1.17s(wall), 2.87s(cpu) 
 Fri Sep 21 16:04:09 2018

        *************************************************************
        *                                                           *
        *  Thank you very much for using Q-Chem.  Have a nice day.  *
        *                                                           *
        *************************************************************


0 sent ACK to 0 
now end server 0 ... 
cleanup process ... done
